Title: * * design : BUFX8 / process : typical / id : D0001 (2014/11/13 17:56:36) * *
Date: 5:56:39 PM, Thur Nov 13, 2014
Plotname: Transient Analysis `transient1': time = (0 s -> 80 ns)
Flags: real
No. Variables:        9
No. Points:       81
Variables:	0	time	s
		1	A	V plot=0 grid=0
		2	Y	V plot=0 grid=0
		3	VDD	V plot=0 grid=0
		4	GND	V plot=0 grid=0
		5	V_A:p	A plot=0 grid=0
		6	V_GND:p	A plot=0 grid=0
		7	V_VDD:p	A plot=0 grid=0
		8	V_Y:p	A plot=0 grid=0
Values:
 0	0	5	4.999999999995
	5	0	0
	0	0	4.999999999995e-12
 1	1e-11	5	4.99999999975431
	5	0	-1.8621383855075e-13
	0	0	1.86213838550753e-13
 2	3e-11	5	4.99999999927293
	5	0	-1.86224155878509e-13
	0	0	1.86224337235881e-13
 3	7e-11	5	4.99999999831018
	5	0	-1.86223992719232e-13
	0	0	1.86223795191127e-13
 4	1e-10	5	4.99999999758811
	5	0	-1.86224427993171e-13
	0	0	1.86224747491131e-13
 5	1.008335e-10	4.958325	4.99845099642843
	5	0	0.000371685936137106
	0	0	-0.000371685936137106
 6	1.025005e-10	4.874975	4.99537232960629
	5	0	0.000367046344724161
	0	0	-0.00036704634472416
 7	1.058345e-10	4.708275	4.98926618594695
	5	0	0.000365544366267486
	0	0	-0.000365544366267487
 8	1.125025e-10	4.374875	4.97713967499666
	5	0	0.000361900791750258
	0	0	-0.000361900791750255
 9	1.258385e-10	3.708075	4.95109223267508
	5	0	0.000419366214565549
	0	0	-0.000419366214565553
 10	1.3001500001e-10	3.4992499995	4.94054796092516
	5	0	0.000590500575463819
	0	0	-0.000590500575463816
 11	1.3836800003e-10	3.08159999850001	4.91903384610421
	5	0	0.000439745542747226
	0	0	-0.000439745542747229
 12	1.49507094531913e-10	2.52464527340435	4.89010373361084
	5	0	0.000599122103639549
	0	0	-0.000599122103639547
 13	1.71435821825426e-10	1.4282089087287	4.83035627141523
	5	0	0.000490726128097804
	0	0	-0.000490726128097807
 14	1.91722891700578e-10	0.413855414971094	4.77218368982984
	5	0	0.000656262204004858
	0	0	-0.000656262204004856
 15	2e-10	0	4.74784661382525
	5	0	0.0005198526867132
	0	0	-0.000519852686713203
 16	2.008335e-10	0	4.74772515082323
	5	0	2.91452866799524e-05
	0	0	-2.91452866799534e-05
 17	2.025005e-10	0	4.74748309111895
	5	0	2.89374163100725e-05
	0	0	-2.89374163100716e-05
 18	2.05368084737968e-10	0	4.74707109108009
	5	0	2.85325465243518e-05
	0	0	-2.85325465243544e-05
 19	2.11103254213904e-10	0	4.74626201054656
	5	0	2.78968511288376e-05
	0	0	-2.78968511288308e-05
 20	2.22573593165776e-10	0	4.74470986546532
	5	0	2.62304005799458e-05
	0	0	-2.62304005799491e-05
 21	2.4551427106952e-10	0	4.74189831748188
	5	0	2.27925175947501e-05
	0	0	-2.27925175947469e-05
 22	2.91395626877007e-10	0	4.73745361684218
	5	0	1.59569872893785e-05
	0	0	-1.59569872893822e-05
 23	3.54628967972919e-10	0	4.73345674249641
	5	0	9.32633811652948e-06
	0	0	-9.3263381165256e-06
 24	4.23501144853383e-10	0	4.73091632361041
	5	0	5.4280510808753e-06
	0	0	-5.42805108087915e-06
 25	5.021491011395e-10	0	4.72918908665718
	5	0	3.35658961291248e-06
	0	0	-3.35658961290841e-06
 26	6.03498498597053e-10	0	4.72779924789493
	5	0	2.12873699373002e-06
	0	0	-2.12873699373407e-06
 27	7.55711595925179e-10	0	4.72642696536087
	5	0	1.47746762466662e-06
	0	0	-1.47746762466249e-06
 28	9.4759096619905e-10	0	4.7252808066297
	5	0	9.11854782565657e-07
	0	0	-9.11854782569561e-07
 29	1.23079566710205e-09	0	4.72408636813513
	5	0	7.75167785203139e-07
	0	0	-7.75167785199303e-07
 30	1.65294265573049e-09	0	4.72283095292634
	5	0	4.14375452239523e-07
	0	0	-4.14375452243356e-07
 31	2.33768186998942e-09	0	4.72143253067917
	5	0	4.02523040443876e-07
	0	0	-4.02523040440069e-07
 32	3.3819073403707e-09	0	4.71995245643953
	5	0	1.64423326709048e-07
	0	0	-1.64423326712859e-07
 33	4.90061661651762e-09	0	4.71848006537328
	5	0	2.23367873040262e-07
	0	0	-2.23367873036436e-07
 34	6.50061661651762e-09	0	4.71732832551733
	5	0	6.45576551380226e-08
	0	0	-6.45576551418469e-08
 35	8.10061661651762e-09	0	4.71640853785336
	5	0	1.653798271185e-07
	0	0	-1.65379827114685e-07
 36	9.70061661651762e-09	0	4.71564434319501
	5	0	2.56594054156853e-08
	0	0	-2.56594054194969e-08
 37	1.13006166165176e-08	0	4.71498985633441
	5	0	1.37952879099825e-07
	0	0	-1.37952879096008e-07
 38	1.29006166165176e-08	0	4.71441891393731
	5	0	4.77329076641397e-09
	0	0	-4.77329077020201e-09
 39	1.45006166165176e-08	0	4.71391233402491
	5	0	1.21862259002207e-07
	0	0	-1.21862258998437e-07
 40	1.61006166165176e-08	0	4.71345825543012
	5	0	-8.35203767485251e-09
	0	0	8.35203767108332e-09
 41	1.77006166165176e-08	0	4.71304655788648
	5	0	1.1126699707872e-07
	0	0	-1.11266997074926e-07
 42	1.93006166165176e-08	0	4.7126708840141
	5	0	-1.73579547005415e-08
	0	0	1.73579546967385e-08
 43	2.09006166165176e-08	0	4.71232517504427
	5	0	1.03775772161869e-07
	0	0	-1.03775772158056e-07
 44	2.25006166165176e-08	0	4.71200564902899
	5	0	-2.39036926710404e-08
	0	0	2.39036926672476e-08
 45	2.41006166165176e-08	0	4.71170838120066
	5	0	9.82112260390476e-08
	0	0	-9.82112260352476e-08
 46	2.57006166165176e-08	0	4.71143094985414
	5	0	-2.88628125502793e-08
	0	0	2.88628125464929e-08
 47	2.73006166165176e-08	0	4.71117067091505
	5	0	9.39231247216811e-08
	0	0	-9.3923124717898e-08
 48	2.89006166165176e-08	0	4.71092590334183
	5	0	-3.27406535114825e-08
	0	0	3.27406535077031e-08
 49	3.05006166165176e-08	0	4.7106947369895
	5	0	9.05228199729655e-08
	0	0	-9.05228199691946e-08
 50	3.21006166165176e-08	0	4.71047600782802
	5	0	-3.58499507754066e-08
	0	0	3.58499507716476e-08
 51	3.37006166165176e-08	0	4.71026831416025
	5	0	8.77639469739588e-08
	0	0	-8.77639469702216e-08
 52	3.53006166165176e-08	0	4.71007080828003
	5	0	-3.83968972586028e-08
	0	0	3.83968972548692e-08
 53	3.69006166165176e-08	0	4.7098824173666
	5	0	8.54852056645586e-08
	0	0	-8.54852056608165e-08
 54	3.85006166165176e-08	0	4.70970250539287
	5	0	-4.05166318182393e-08
	0	0	4.05166318144988e-08
 55	4.01006166165176e-08	0	4.70953024987347
	5	0	8.35710924355173e-08
	0	0	-8.35710924317768e-08
 56	4.17006166165176e-08	0	4.70936515332262
	5	0	-4.2306373617282e-08
	0	0	4.23063736135432e-08
 57	4.33006166165176e-08	0	4.70920657427983
	5	0	8.19417157430736e-08
	0	0	-8.19417157393349e-08
 58	4.49006166165176e-08	0	4.70905411477533
	5	0	-4.38362578802856e-08
	0	0	4.38362578765182e-08
 59	4.65006166165176e-08	0	4.70890726698506
	5	0	8.05387874858764e-08
	0	0	-8.05387874821106e-08
 60	4.81006166165176e-08	0	4.70876570652302
	5	0	-4.51580896491355e-08
	0	0	4.51580896453729e-08
 61	4.97006166165176e-08	0	4.70862902596374
	5	0	7.93188120752654e-08
	0	0	-7.93188120715012e-08
 62	5.13006166165176e-08	0	4.70849695672965
	5	0	-4.63109206784615e-08
	0	0	4.63109206747025e-08
 63	5.29006166165176e-08	0	4.70836916797912
	5	0	7.82486914452966e-08
	0	0	-7.82486914415273e-08
 64	5.45006166165176e-08	0	4.70824543440961
	5	0	-4.73247156820807e-08
	0	0	4.73247156783011e-08
 65	5.61006166165176e-08	0	4.70812548438881
	5	0	7.73028045098743e-08
	0	0	-7.7302804506083e-08
 66	5.77006166165176e-08	0	4.70800912682113
	5	0	-4.8222828724735e-08
	0	0	4.8222828720948e-08
 67	5.93006166165176e-08	0	4.70789613640841
	5	0	7.64610160004745e-08
	0	0	-7.64610159966849e-08
 68	6.09006166165176e-08	0	4.70778634954551
	5	0	-4.90237159588219e-08
	0	0	4.90237159550289e-08
 69	6.25006166165177e-08	0	4.70767957759601
	5	0	7.57072878682922e-08
	0	0	-7.57072878645237e-08
 70	6.41006166165177e-08	0	4.70757567936412
	5	0	-4.97421451498089e-08
	0	0	4.97421451460371e-08
 71	6.57006166165177e-08	0	4.70747449551968
	5	0	7.50286912086113e-08
	0	0	-7.50286912048413e-08
 72	6.73006166165177e-08	0	4.70737590335866
	5	0	-5.03900658045993e-08
	0	0	5.0390065800826e-08
 73	6.89006166165177e-08	0	4.70727976720173
	5	0	7.44146903825251e-08
	0	0	-7.44146903787397e-08
 74	7.05006166165177e-08	0	4.70718597976474
	5	0	-5.0977245601937e-08
	0	0	5.09772455981349e-08
 75	7.21006166165177e-08	0	4.70709442462664
	5	0	7.38566158479066e-08
	0	0	-7.38566158440959e-08
 76	7.37006166165177e-08	0	4.70700500747843
	5	0	-5.15117428953957e-08
	0	0	5.15117428916035e-08
 77	7.53006166165177e-08	0	4.70691762771355
	5	0	7.33472701938919e-08
	0	0	-7.33472701901047e-08
 78	7.69006166165177e-08	0	4.70683220202694
	5	0	-5.20002622930396e-08
	0	0	5.20002622892473e-08
 79	7.85006166165177e-08	0	4.7067486429028
	5	0	7.28806297493271e-08
	0	0	-7.28806297455332e-08
 80	8e-08	0	4.70667196773926
	5	0	-5.24349242523928e-08
	0	0	5.24349242485997e-08
Plotname: Measurement Results for transient1 Analysis tran
Flags: real
No. Variables:        4
No. Points:        1
Variables:	0	dummy	dummy
		1	delay_d0001	 plot=0 grid=0
		2	slew_d0001	 plot=0 grid=0
		3	temper	C plot=0 grid=0
Values:
 0	0	nan	nan
	25
Plotname: Transient Analysis `transient2': time = (0 s -> 80 ns)
Flags: real
No. Variables:        9
No. Points:       82
Variables:	0	time	s
		1	A	V plot=0 grid=0
		2	Y	V plot=0 grid=0
		3	VDD	V plot=0 grid=0
		4	GND	V plot=0 grid=0
		5	V_A:p	A plot=0 grid=0
		6	V_GND:p	A plot=0 grid=0
		7	V_VDD:p	A plot=0 grid=0
		8	V_Y:p	A plot=0 grid=0
Values:
 0	0	5	4.999999999995
	5	0	0
	0	0	4.999999999995e-12
 1	1e-11	5	4.99999999987237
	5	0	-9.48735969440668e-14
	0	0	9.48735969440713e-14
 2	3e-11	5	4.99999999962712
	5	0	-9.48788732602183e-14
	0	0	9.48788642715881e-14
 3	7e-11	5	4.9999999991366
	5	0	-9.4878940127028e-14
	0	0	9.48789073075707e-14
 4	1e-10	5	4.99999999876872
	5	0	-9.48783459235488e-14
	0	0	9.48784729463286e-14
 5	1.008335e-10	4.958325	4.99921088790657
	5	0	0.000378697469338844
	0	0	-0.000378697469338844
 6	1.025005e-10	4.874975	4.99764279482348
	5	0	0.000373836693709994
	0	0	-0.000373836693709995
 7	1.058345e-10	4.708275	4.99453340254184
	5	0	0.000372268222907591
	0	0	-0.000372268222907591
 8	1.125025e-10	4.374875	4.98835806224691
	5	0	0.000368624423969741
	0	0	-0.000368624423969742
 9	1.258385e-10	3.708075	4.9749286588734
	5	0	0.000436978647861235
	0	0	-0.000436978647861235
 10	1.3001500001e-10	3.4992499995	4.96949264483048
	5	0	0.000604278668645771
	0	0	-0.000604278668645773
 11	1.3836800003e-10	3.08159999850001	4.95844211124163
	5	0	0.000454074829136729
	0	0	-0.000454074829136727
 12	1.49570407833944e-10	2.5214796083028	4.94349252997615
	5	0	0.000613522879389271
	0	0	-0.00061352287938927
 13	1.71975223441833e-10	1.40123882790837	4.91192207917459
	5	0	0.000513750866686267
	0	0	-0.000513750866686267
 14	1.91511523265674e-10	0.42442383671631	4.88299897790104
	5	0	0.000670633128037403
	0	0	-0.000670633128037404
 15	2e-10	0	4.8700948005795
	5	0	0.000545526390042442
	0	0	-0.000545526390042442
 16	2.008335e-10	0	4.87002579918653
	5	0	3.31140409472606e-05
	0	0	-3.31140409472802e-05
 17	2.025005e-10	0	4.86988867188458
	5	0	3.26938926584384e-05
	0	0	-3.26938926584325e-05
 18	2.05408859531172e-10	0	4.86965152111529
	5	0	3.25389594246252e-05
	0	0	-3.25389594246499e-05
 19	2.11225578593516e-10	0	4.86918615607546
	5	0	3.14648150793722e-05
	0	0	-3.14648150793444e-05
 20	2.22859016718204e-10	0	4.86829507507326
	5	0	2.98123998624919e-05
	0	0	-2.98123998625197e-05
 21	2.4612589296758e-10	0	4.86668878081465
	5	0	2.54178410434988e-05
	0	0	-2.54178410434717e-05
 22	2.92659645466332e-10	0	4.86417947590591
	5	0	1.77216731023248e-05
	0	0	-1.77216731023523e-05
 23	3.53359497367515e-10	0	4.86206743367374
	5	0	1.01141970429712e-05
	0	0	-1.01141970429438e-05
 24	4.19600936232502e-10	0	4.86072185648221
	5	0	6.13637250409005e-06
	0	0	-6.13637250411739e-06
 25	4.94531848860251e-10	0	4.85981475850667
	5	0	3.54825065895299e-06
	0	0	-3.54825065892604e-06
 26	5.91475207323004e-10	0	4.85908078826211
	5	0	2.50863928969531e-06
	0	0	-2.50863928972215e-06
 27	7.34361946515021e-10	0	4.85836772213224
	5	0	1.48369420908005e-06
	0	0	-1.48369420905306e-06
 28	9.14881462463311e-10	0	4.85776575174461
	5	0	1.18402043450577e-06
	0	0	-1.18402043453263e-06
 29	1.1790564810728e-09	0	4.85713751166669
	5	0	7.18466403760904e-07
	0	0	-7.18466403734043e-07
 30	1.57188206092124e-09	0	4.85646977816521
	5	0	6.41381357774917e-07
	0	0	-6.41381357801914e-07
 31	2.20696229740211e-09	0	4.85571465536192
	5	0	3.09824552772814e-07
	0	0	-3.09824552745804e-07
 32	3.1747847386554e-09	0	4.85491657208296
	5	0	3.49859701061138e-07
	0	0	-3.49859701088132e-07
 33	4.59416899880923e-09	0	4.85409038178686
	5	0	1.15791831525088e-07
	0	0	-1.15791831498097e-07
 34	6.19416899880923e-09	0	4.85340225314887
	5	0	2.28262779977179e-07
	0	0	-2.28262780004186e-07
 35	7.79416899880923e-09	0	4.85286593657057
	5	0	3.98858029041874e-08
	0	0	-3.98858028772125e-08
 36	9.39416899880923e-09	0	4.85242843480595
	5	0	1.78855374111008e-07
	0	0	-1.78855374138025e-07
 37	1.09941689988092e-08	0	4.85205986039681
	5	0	5.42212596881266e-09
	0	0	-5.422125941821e-09
 38	1.25941689988092e-08	0	4.85174225411919
	5	0	1.53371309041965e-07
	0	0	-1.53371309068937e-07
 39	1.41941689988092e-08	0	4.85146361960128
	5	0	-1.40637532932856e-08
	0	0	1.40637533202568e-08
 40	1.57941689988092e-08	0	4.85121588143065
	5	0	1.37923135927143e-07
	0	0	-1.37923135954097e-07
 41	1.73941689988092e-08	0	4.85099304307048
	5	0	-2.65136580488516e-08
	0	0	2.65136580758042e-08
 42	1.89941689988092e-08	0	4.850790817301
	5	0	1.27616841003576e-07
	0	0	-1.27616841030528e-07
 43	2.05941689988092e-08	0	4.85060578925375
	5	0	-3.5112518776618e-08
	0	0	3.51125188035706e-08
 44	2.21941689988092e-08	0	4.85043542809213
	5	0	1.20283398548538e-07
	0	0	-1.20283398575508e-07
 45	2.37941689988092e-08	0	4.8502776120462
	5	0	-4.13850762982649e-08
	0	0	4.13850763252207e-08
 46	2.53941689988092e-08	0	4.85013073055845
	5	0	1.14816119767209e-07
	0	0	-1.14816119794153e-07
 47	2.69941689988092e-08	0	4.8499933797406
	5	0	-4.61504109675666e-08
	0	0	4.6150410994504e-08
 48	2.85941689988092e-08	0	4.84986447496792
	5	0	1.1059309744887e-07
	0	0	-1.10593097475833e-07
 49	3.01941689988092e-08	0	4.84974304200746
	5	0	-4.98863168252703e-08
	0	0	4.98863168522485e-08
 50	3.17941689988092e-08	0	4.84962831723077
	5	0	1.07239005799047e-07
	0	0	-1.07239005826023e-07
 51	3.33941689988092e-08	0	4.84951959879164
	5	0	-5.28894853806669e-08
	0	0	5.28894854076602e-08
 52	3.49941689988092e-08	0	4.84941632942925
	5	0	1.04514467638211e-07
	0	0	-1.04514467665222e-07
 53	3.65941689988092e-08	0	4.84931798802435
	5	0	-5.53534639227848e-08
	0	0	5.53534639498001e-08
 54	3.81941689988092e-08	0	4.84922415572674
	5	0	1.02259914184747e-07
	0	0	-1.02259914211754e-07
 55	3.97941689988092e-08	0	4.84913443583533
	5	0	-5.74096668363463e-08
	0	0	5.74096668633514e-08
 56	4.13941689988092e-08	0	4.84904850566341
	5	0	1.00365054611932e-07
	0	0	-1.00365054638947e-07
 57	4.29941689988092e-08	0	4.84896605681628
	5	0	-5.91503290617068e-08
	0	0	5.91503290887169e-08
 58	4.45941689988093e-08	0	4.84888683544378
	5	0	9.87513174600376e-08
	0	0	-9.87513174870562e-08
 59	4.61941689988093e-08	0	4.84881059745551
	5	0	-6.06420210229801e-08
	0	0	6.06420210499946e-08
 60	4.77941689988093e-08	0	4.84873713955466
	5	0	9.7361273899174e-08
	0	0	-9.73612739261672e-08
 61	4.93941689988093e-08	0	4.84866626551342
	5	0	-6.193395068378e-08
	0	0	6.19339507107647e-08
 62	5.09941689988093e-08	0	4.84859780999391
	5	0	9.61520131753345e-08
	0	0	-9.61520132023167e-08
 63	5.25941689988093e-08	0	4.84853161307412
	5	0	-6.30632504094606e-08
	0	0	6.30632504364582e-08
 64	5.41941689988093e-08	0	4.84846753847555
	5	0	9.50908526978144e-08
	0	0	-9.50908527248357e-08
 65	5.57941689988093e-08	0	4.84840545427594
	5	0	-6.40584497678909e-08
	0	0	6.4058449794901e-08
 66	5.73941689988093e-08	0	4.84834524682472
	5	0	9.41524786261269e-08
	0	0	-9.41524786531261e-08
 67	5.89941689988093e-08	0	4.84828680611255
	5	0	-6.49418191736802e-08
	0	0	6.49418192006632e-08
 68	6.05941689988093e-08	0	4.84823003637539
	5	0	9.33169912385958e-08
	0	0	-9.33169912655755e-08
 69	6.21941689988093e-08	0	4.84817484497914
	5	0	-6.57309895193838e-08
	0	0	6.57309895463567e-08
 70	6.37941689988093e-08	0	4.84812115048814
	5	0	9.25685387225701e-08
	0	0	-9.25685387495329e-08
 71	6.53941689988093e-08	0	4.84806887420885
	5	0	-6.64400952673617e-08
	0	0	6.64400952943295e-08
 72	6.69941689988093e-08	0	4.84801794632086
	5	0	9.18943431756345e-08
	0	0	-9.18943432025949e-08
 73	6.85941689988093e-08	0	4.84796829943556
	5	0	-6.70805965132326e-08
	0	0	6.70805965402063e-08
 74	7.01941689988093e-08	0	4.84791987324916
	5	0	9.12839938285196e-08
	0	0	-9.12839938554757e-08
 75	7.17941689988093e-08	0	4.8478726096304
	5	0	-6.76618802407761e-08
	0	0	6.76618802677235e-08
 76	7.33941689988093e-08	0	4.84782645614759
	5	0	9.07289259439933e-08
	0	0	-9.07289259709382e-08
 77	7.49941689988093e-08	0	4.84778136231815
	5	0	-6.81917068318289e-08
	0	0	6.81917068587612e-08
 78	7.65941689988093e-08	0	4.84773728227871
	5	0	9.02220310369777e-08
	0	0	-9.02220310639048e-08
 79	7.81941689988093e-08	0	4.84769417191832
	5	0	-6.8676546277202e-08
	0	0	6.86765463041174e-08
 80	7.90970844994046e-08	0	4.84767025781073
	5	0	8.9855196953532e-08
	0	0	-8.98551969804118e-08
 81	8e-08	0	4.84764663232311
	5	0	-6.89322689130442e-08
	0	0	6.89322689399273e-08
Plotname: Measurement Results for transient2 Analysis tran
Flags: real
No. Variables:        4
No. Points:        1
Variables:	0	dummy	dummy
		1	delay_d0001	 plot=0 grid=0
		2	slew_d0001	 plot=0 grid=0
		3	temper	C plot=0 grid=0
Values:
 0	0	nan	nan
	25
Plotname: Transient Analysis `transient3': time = (0 s -> 80 ns)
Flags: real
No. Variables:        9
No. Points:       82
Variables:	0	time	s
		1	A	V plot=0 grid=0
		2	Y	V plot=0 grid=0
		3	VDD	V plot=0 grid=0
		4	GND	V plot=0 grid=0
		5	V_A:p	A plot=0 grid=0
		6	V_GND:p	A plot=0 grid=0
		7	V_VDD:p	A plot=0 grid=0
		8	V_Y:p	A plot=0 grid=0
Values:
 0	0	5	4.999999999995
	5	0	0
	0	0	4.999999999995e-12
 1	1e-11	5	4.9999999999331
	5	0	-4.78911591254256e-14
	0	0	4.78911591254298e-14
 2	3e-11	5	4.9999999998093
	5	0	-4.78937063953036e-14
	0	0	4.78936551282724e-14
 3	7e-11	5	4.99999999956169
	5	0	-4.78937927383729e-14
	0	0	4.78938471945716e-14
 4	1e-10	5	4.99999999937599
	5	0	-4.78941054618817e-14
	0	0	4.7893928965917e-14
 5	1.008335e-10	4.958325	4.99960168703634
	5	0	0.000382303380381806
	0	0	-0.000382303380381803
 6	1.025005e-10	4.874975	4.99881024843761
	5	0	0.000377325738578788
	0	0	-0.000377325738578791
 7	1.058345e-10	4.708275	4.99724108150749
	5	0	0.000375723767980407
	0	0	-0.000375723767980401
 8	1.125025e-10	4.374875	4.99412459123204
	5	0	0.000372084326514448
	0	0	-0.000372084326514455
 9	1.258385e-10	3.708075	4.98730249191992
	5	0	0.000446403883314613
	0	0	-0.000446403883314606
 10	1.3001500001e-10	3.4992499995	4.9845429300272
	5	0	0.000610772933669412
	0	0	-0.00061077293366942
 11	1.3836800003e-10	3.08159999850001	4.97894134000079
	5	0	0.000462200122426207
	0	0	-0.0004622001224262
 12	1.49630875959631e-10	2.51845620201846	4.97132011007197
	5	0	0.000620468980051824
	0	0	-0.000620468980051831
 13	1.72156627818893e-10	1.39216860905535	4.95517401141725
	5	0	0.000526385419541507
	0	0	-0.000526385419541499
 14	1.91355012347451e-10	0.432249382627461	4.94072776248603
	5	0	0.000677569947931303
	0	0	-0.000677569947931312
 15	2e-10	0	4.93404311444351
	5	0	0.0005596136331837
	0	0	-0.000559613633183689
 16	2.008335e-10	0	4.93400652120756
	5	0	3.5122477075207e-05
	0	0	-3.51224770752011e-05
 17	2.025005e-10	0	4.93393349774673
	5	0	3.49660177586118e-05
	0	0	-3.4966017758639e-05
 18	2.05438864790395e-10	0	4.93380593089295
	5	0	3.44967452405275e-05
	0	0	-3.44967452405023e-05
 19	2.11315594371185e-10	0	4.93355571515767
	5	0	3.36270492886217e-05
	0	0	-3.36270492886463e-05
 20	2.23069053532766e-10	0	4.93307713727639
	5	0	3.15218131480842e-05
	0	0	-3.15218131480608e-05
 21	2.46575971855927e-10	0	4.93221691446312
	5	0	2.70293014815798e-05
	0	0	-2.70293014816021e-05
 22	2.9358980850225e-10	0	4.93088245081397
	5	0	1.83858683334236e-05
	0	0	-1.83858683334016e-05
 23	3.53085919219152e-10	0	4.92979985428479
	5	0	1.07278642979978e-05
	0	0	-1.07278642980197e-05
 24	4.18118532460943e-10	0	4.92910863822787
	5	0	6.2781423005033e-06
	0	0	-6.2781423004814e-06
 25	4.91345654837036e-10	0	4.9286442184842
	5	0	3.86933917779599e-06
	0	0	-3.86933917781789e-06
 26	5.86393262234629e-10	0	4.92826652688074
	5	0	2.48858655235107e-06
	0	0	-2.48858655232874e-06
 27	7.25020145591339e-10	0	4.92790244710458
	5	0	1.71352967085652e-06
	0	0	-1.71352967087886e-06
 28	9.00511686421472e-10	0	4.92759259392987
	5	0	1.11146888829962e-06
	0	0	-1.11146888827724e-06
 29	1.15633031828616e-09	0	4.92726840551093
	5	0	9.16135377493608e-07
	0	0	-9.1613537751602e-07
 30	1.5364817115154e-09	0	4.92692127392172
	5	0	5.4487938278975e-07
	0	0	-5.4487938276722e-07
 31	2.14962280185014e-09	0	4.92652573025648
	5	0	4.87287328619716e-07
	0	0	-4.87287328642278e-07
 32	3.08363721736029e-09	0	4.92610425531504
	5	0	2.34704422904884e-07
	0	0	-2.3470442288231e-07
 33	4.45219161692933e-09	0	4.92566747619089
	5	0	2.75931556322448e-07
	0	0	-2.75931556345006e-07
 34	6.05219161692933e-09	0	4.92529388384118
	5	0	9.76509424253798e-08
	0	0	-9.76509424028236e-08
 35	7.65219161692933e-09	0	4.92500677100156
	5	0	1.89452046889976e-07
	0	0	-1.89452046912527e-07
 36	9.25219161692933e-09	0	4.92477503356943
	5	0	4.22755354604291e-08
	0	0	-4.22755354378503e-08
 37	1.08521916169293e-08	0	4.92458138908726
	5	0	1.51359097357181e-07
	0	0	-1.5135909737977e-07
 38	1.24521916169293e-08	0	4.92441554212014
	5	0	1.44780207660352e-08
	0	0	-1.44780207434381e-08
 39	1.40521916169293e-08	0	4.92427074496044
	5	0	1.30309290244539e-07
	0	0	-1.30309290267169e-07
 40	1.56521916169293e-08	0	4.92414247992358
	5	0	-2.05410179118012e-09
	0	0	2.05410181382459e-09
 41	1.72521916169293e-08	0	4.92402745597112
	5	0	1.17068206078514e-07
	0	0	-1.17068206101156e-07
 42	1.88521916169293e-08	0	4.92392331963434
	5	0	-1.29417172462216e-08
	0	0	1.29417172688729e-08
 43	2.04521916169293e-08	0	4.92382823113302
	5	0	1.08020370810983e-07
	0	0	-1.08020370833623e-07
 44	2.20521916169293e-08	0	4.92374082021936
	5	0	-2.06193047157076e-08
	0	0	2.06193047383472e-08
 45	2.36521916169293e-08	0	4.92365995934638
	5	0	1.01470330293032e-07
	0	0	-1.01470330315682e-07
 46	2.52521916169293e-08	0	4.92358478538522
	5	0	-2.63062163792514e-08
	0	0	2.63062164019011e-08
 47	2.68521916169293e-08	0	4.92351455987971
	5	0	9.65218747893057e-08
	0	0	-9.65218748119629e-08
 48	2.84521916169293e-08	0	4.92344870606972
	5	0	-3.06779117633493e-08
	0	0	3.06779117860064e-08
 49	3.00521916169293e-08	0	4.92338671543915
	5	0	9.26586954964603e-08
	0	0	-9.2658695519137e-08
 50	3.16521916169293e-08	0	4.92332818441231
	5	0	-3.4137515365589e-08
	0	0	3.41375153882768e-08
 51	3.32521916169293e-08	0	4.92327274879147
	5	0	8.95632895964177e-08
	0	0	-8.95632896191139e-08
 52	3.48521916169293e-08	0	4.92322011554192
	5	0	-3.69398865290624e-08
	0	0	3.69398865517426e-08
 53	3.64521916169293e-08	0	4.92317001545721
	5	0	8.7030124840816e-08
	0	0	-8.70301248634987e-08
 54	3.80521916169293e-08	0	4.92312222921329
	5	0	-3.92537272075008e-08
	0	0	3.92537272301639e-08
 55	3.96521916169293e-08	0	4.92307655258105
	5	0	8.49205132463169e-08
	0	0	-8.49205132689851e-08
 56	4.12521916169293e-08	0	4.92303281720228
	5	0	-4.11949805887131e-08
	0	0	4.11949806113864e-08
 57	4.28521916169294e-08	0	4.92299086472929
	5	0	8.3137607558259e-08
	0	0	-8.313760758093e-08
 58	4.44521916169294e-08	0	4.92295056313698
	5	0	-4.28458611935867e-08
	0	0	4.28458612162491e-08
 59	4.60521916169294e-08	0	4.92291178735063
	5	0	8.16118016860224e-08
	0	0	-8.16118017086957e-08
 60	4.76521916169294e-08	0	4.92287443193227
	5	0	-4.42662291125368e-08
	0	0	4.4266229135216e-08
 61	4.92521916169294e-08	0	4.92283839649084
	5	0	8.02918248247169e-08
	0	0	-8.02918248473878e-08
 62	5.08521916169294e-08	0	4.92280359548782
	5	0	-4.5500667444018e-08
	0	0	4.55006674666821e-08
 63	5.24521916169294e-08	0	4.92276994720625
	5	0	7.91391034434274e-08
	0	0	-7.91391034660982e-08
 64	5.40521916169294e-08	0	4.92273738129727
	5	0	-4.65830399717973e-08
	0	0	4.65830399944606e-08
 65	5.56521916169294e-08	0	4.92270583041539
	5	0	7.81240764033287e-08
	0	0	-7.81240764259937e-08
 66	5.72521916169294e-08	0	4.92267523600817
	5	0	-4.75395145592233e-08
	0	0	4.75395145819026e-08
 67	5.88521916169294e-08	0	4.92264554195849
	5	0	7.7223718916486e-08
	0	0	-7.72237189391526e-08
 68	6.04521916169294e-08	0	4.92261669901568
	5	0	-4.83906213638013e-08
	0	0	4.83906213864822e-08
 69	6.20521916169294e-08	0	4.92258865995402
	5	0	7.6419837817735e-08
	0	0	-7.64198378404255e-08
 70	6.36521916169294e-08	0	4.92256138295735
	5	0	-4.91526863037933e-08
	0	0	4.91526863264709e-08
 71	6.52521916169294e-08	0	4.92253482792621
	5	0	7.56978723441955e-08
	0	0	-7.56978723668664e-08
 72	6.68521916169294e-08	0	4.92250895905864
	5	0	-4.98388498159721e-08
	0	0	4.98388498386614e-08
 73	6.84521916169294e-08	0	4.92248374202928
	5	0	7.50460341844076e-08
	0	0	-7.50460342071029e-08
 74	7.00521916169294e-08	0	4.92245914595424
	5	0	-5.04598040873205e-08
	0	0	5.04598041100345e-08
 75	7.16521916169294e-08	0	4.92243514123332
	5	0	7.44546801133183e-08
	0	0	-7.4454680136023e-08
 76	7.32521916169294e-08	0	4.92241170104366
	5	0	-5.10243352986346e-08
	0	0	5.10243353213394e-08
 77	7.48521916169294e-08	0	4.92238879968701
	5	0	7.39158471475164e-08
	0	0	-7.39158471702245e-08
 78	7.64521916169294e-08	0	4.92236641372346
	5	0	-5.15397283523814e-08
	0	0	5.1539728375094e-08
 79	7.80521916169294e-08	0	4.92234452070386
	5	0	7.34229032391476e-08
	0	0	-7.34229032618862e-08
 80	7.90260958084647e-08	0	4.92233142782968
	5	0	-5.1922830537821e-08
	0	0	5.19228305605147e-08
 81	8e-08	0	4.92231850532897
	5	0	7.31430014456585e-08
	0	0	-7.31430014683387e-08
Plotname: Measurement Results for transient3 Analysis tran
Flags: real
No. Variables:        4
No. Points:        1
Variables:	0	dummy	dummy
		1	delay_d0001	 plot=0 grid=0
		2	slew_d0001	 plot=0 grid=0
		3	temper	C plot=0 grid=0
Values:
 0	0	nan	nan
	25
Plotname: Transient Analysis `transient4': time = (0 s -> 80 ns)
Flags: real
No. Variables:        9
No. Points:       82
Variables:	0	time	s
		1	A	V plot=0 grid=0
		2	Y	V plot=0 grid=0
		3	VDD	V plot=0 grid=0
		4	GND	V plot=0 grid=0
		5	V_A:p	A plot=0 grid=0
		6	V_GND:p	A plot=0 grid=0
		7	V_VDD:p	A plot=0 grid=0
		8	V_Y:p	A plot=0 grid=0
Values:
 0	0	5	4.999999999995
	5	0	0
	0	0	4.999999999995e-12
 1	1e-11	5	4.99999999997423
	5	0	-1.60663109424611e-14
	0	0	1.60663109424656e-14
 2	3e-11	5	4.9999999999327
	5	0	-1.60674057793713e-14
	0	0	1.60675382702236e-14
 3	7e-11	5	4.99999999984964
	5	0	-1.60670302164216e-14
	0	0	1.60669221678634e-14
 4	1e-10	5	4.99999999978734
	5	0	-1.6067105762158e-14
	0	0	1.60673483389938e-14
 5	1.008335e-10	4.958325	4.99986638080505
	5	0	0.000384745714846319
	0	0	-0.000384745714846322
 6	1.025005e-10	4.874975	4.99960089944571
	5	0	0.000379687703363002
	0	0	-0.000379687703362995
 7	1.058345e-10	4.708275	4.99907457819697
	5	0	0.000378063334613126
	0	0	-0.000378063334613134
 8	1.125025e-10	4.374875	4.99802924140691
	5	0	0.000374428645835816
	0	0	-0.000374428645835808
 9	1.258385e-10	3.708075	4.9957305868541
	5	0	0.000452921513150695
	0	0	-0.000452921513150703
 10	1.3001500001e-10	3.4992499995	4.99480140309497
	5	0	0.000614977922123433
	0	0	-0.000614977922123425
 11	1.3836800003e-10	3.08159999850001	4.99291686037357
	5	0	0.000467962932375392
	0	0	-0.0004679629323754
 12	1.49681029346527e-10	2.51594853267364	4.99034077518167
	5	0	0.000625043057636578
	0	0	-0.000625043057636571
 13	1.72307087979582e-10	1.3846456010209	4.98487107272584
	5	0	0.000535325700709525
	0	0	-0.000535325700709532
 14	1.91306758572135e-10	0.434662071393271	4.98005190082014
	5	0	0.000682170405097524
	0	0	-0.000682170405097515
 15	2e-10	0	4.97778497857961
	5	0	0.00056951767445575
	0	0	-0.000569517674455759
 16	2.008335e-10	0	4.97777227475389
	5	0	3.65796971825187e-05
	0	0	-3.65796971825282e-05
 17	2.025005e-10	0	4.97774689235446
	5	0	3.6506985871046e-05
	0	0	-3.65069858710308e-05
 18	2.0544808419788e-10	0	4.97770241635874
	5	0	3.59200376757176e-05
	0	0	-3.59200376757402e-05
 19	2.11343252593641e-10	0	4.97761519834457
	5	0	3.50951363118401e-05
	0	0	-3.50951363118205e-05
 20	2.23133589385162e-10	0	4.97744847366243
	5	0	3.2780647989471e-05
	0	0	-3.2780647989492e-05
 21	2.46714262968204e-10	0	4.97714922997743
	5	0	2.81323470633537e-05
	0	0	-2.81323470633308e-05
 22	2.93875610134288e-10	0	4.97668667340393
	5	0	1.89458476184906e-05
	0	0	-1.89458476185132e-05
 23	3.52579002187003e-10	0	4.97631878006066
	5	0	1.11356758107942e-05
	0	0	-1.11356758107715e-05
 24	4.1677670709163e-10	0	4.97608363647942
	5	0	6.44577126268918e-06
	0	0	-6.44577126271185e-06
 25	4.88845884374952e-10	0	4.97592598020889
	5	0	4.05454815095462e-06
	0	0	-4.05454815093238e-06
 26	5.82474278367083e-10	0	4.97579747095865
	5	0	2.53366129135769e-06
	0	0	-2.53366129137972e-06
 27	7.18250750013319e-10	0	4.97567405836994
	5	0	1.82923801983561e-06
	0	0	-1.82923801981325e-06
 28	8.90229096627068e-10	0	4.97556852369572
	5	0	1.11627654537441e-06
	0	0	-1.11627654539684e-06
 29	1.1402093350744e-09	0	4.97545789055748
	5	0	1.00803767766682e-06
	0	0	-1.00803767764455e-06
 30	1.51130490887885e-09	0	4.97533884056101
	5	0	5.31825178913312e-07
	0	0	-5.31825178935574e-07
 31	2.10910142457279e-09	0	4.97520246687356
	5	0	5.63175768996386e-07
	0	0	-5.63175768974124e-07
 32	3.01973802725163e-09	0	4.97505651884405
	5	0	2.06111868389687e-07
	0	0	-2.06111868411936e-07
 33	4.35300800913787e-09	0	4.97490550191705
	5	0	3.37564951358377e-07
	0	0	-3.37564951336161e-07
 34	5.95300800913787e-09	0	4.97477403644058
	5	0	5.68215283724279e-08
	0	0	-5.68215283946521e-08
 35	7.55300800913787e-09	0	4.97467407217601
	5	0	2.430613158897e-07
	0	0	-2.43061315867464e-07
 36	9.15300800913787e-09	0	4.97459398866281
	5	0	-2.82072555265692e-09
	0	0	2.82072553041278e-09
 37	1.07530080091379e-08	0	4.97452743074697
	5	0	2.02484523955637e-07
	0	0	-2.02484523933385e-07
 38	1.23530080091379e-08	0	4.97447065041134
	5	0	-3.21534660657357e-08
	0	0	3.21534660434757e-08
 39	1.39530080091379e-08	0	4.97442122503845
	5	0	1.80419635826455e-07
	0	0	-1.80419635804205e-07
 40	1.55530080091379e-08	0	4.97437754117141
	5	0	-4.93779835030777e-08
	0	0	4.93779834807871e-08
 41	1.71530080091379e-08	0	4.9743384376479
	5	0	1.66678605331746e-07
	0	0	-1.6667860530943e-07
 42	1.87530080091379e-08	0	4.97430308475497
	5	0	-6.06298751815604e-08
	0	0	6.06298751592395e-08
 43	2.03530080091379e-08	0	4.9742708411791
	5	0	1.57350654200648e-07
	0	0	-1.57350654178334e-07
 44	2.19530080091379e-08	0	4.97424122806694
	5	0	-6.85212662207994e-08
	0	0	6.85212661984902e-08
 45	2.35530080091379e-08	0	4.97421385573846
	5	0	1.5062830320079e-07