HEADER
"PSFversion" "1.00"
"design" "(\"ExperimentalCells\" \"TestAsyncYSD\" \"config\" \"\")"
"simulator" "spectre"
"temperature" "27"
"host" ""
"date" "Nov  7 17:13:05 2014"
"title" ""
"analysisList" "()"
END
