HEADER
"PSFversion" "1.00"
"design" "(\"ExperimentalCells\" \"ADDER_TEST\" \"schematic\" \"\")"
"simulator" "spectre"
"temperature" "27"
"host" ""
"date" "Nov 11 18:43:06 2014"
"title" ""
"analysisList" "()"
END
