HEADER
"PSFversion" "1.00"
"design" "(\"ExperimentalCells\" \"TestAsyncYSD\" \"schematic\" \"\")"
"simulator" "spectre"
"temperature" "27"
"host" ""
"date" "Nov  9 01:41:19 2014"
"title" ""
"analysisList" "()"
END
