Title: * * design : BUFX4 / process : typical / id : D0000 (2014/11/13 17:56:57) * *
Date: 5:56:58 PM, Thur Nov 13, 2014
Plotname: Transient Analysis `transient1': time = (0 s -> 80 ns)
Flags: real
No. Variables:        9
No. Points:       81
Variables:	0	time	s
		1	A	V plot=0 grid=0
		2	Y	V plot=0 grid=0
		3	VDD	V plot=0 grid=0
		4	GND	V plot=0 grid=0
		5	V_A:p	A plot=0 grid=0
		6	V_GND:p	A plot=0 grid=0
		7	V_VDD:p	A plot=0 grid=0
		8	V_Y:p	A plot=0 grid=0
Values:
 0	0	0	0
	5	0	0
	0	0	0
 1	1e-11	0	0
	5	0	0
	0	0	0
 2	3e-11	0	0
	5	0	0
	0	0	0
 3	7e-11	0	0
	5	0	0
	0	0	0
 4	1e-10	0	0
	5	0	0
	0	0	0
 5	1.008335e-10	0.0416750000000001	0.00201390390108904
	5	0	-0.000241620144103878
	0	0	0.000241620144103878
 6	1.025005e-10	0.125025	0.00607282952264376
	5	0	-0.000245353535754803
	0	0	0.000245353535754803
 7	1.058345e-10	0.291725000000001	0.0143570432592379
	5	0	-0.000251599897774571
	0	0	0.000251599897774571
 8	1.125025e-10	0.625125000000002	0.032136103839648
	5	0	-0.000281665266651347
	0	0	0.000281665266651346
 9	1.258385e-10	1.291925	0.0705980335621373
	5	0	-0.000295148316572102
	0	0	0.000295148316572103
 10	1.3001500001e-10	1.5007500005	0.0834197585805634
	5	0	-0.000318845457685909
	0	0	0.000318845457685907
 11	1.3836800003e-10	1.91840000149999	0.109289041491446
	5	0	-0.000300555544516688
	0	0	0.000300555544516689
 12	1.5507400007e-10	2.75370000349997	0.161141259332292
	5	0	-0.00032020607094224
	0	0	0.000320206070942238
 13	1.78258304675408e-10	3.91291523377041	0.234470043623589
	5	0	-0.000312366573225397
	0	0	0.000312366573225398
 14	2e-10	5	0.305172986141034
	5	0	-0.00033802376221581
	0	0	0.000338023762215809
 15	2.008335e-10	5	0.305334037839511
	5	0	-1.93223396547734e-05
	0	0	1.93223396547614e-05
 16	2.025005e-10	5	0.305654630497402
	5	0	-1.91410872178707e-05
	0	0	1.91410872178714e-05
 17	2.058345e-10	5	0.306280711041809
	5	0	-1.84162345942232e-05
	0	0	1.84162345942237e-05
 18	2.125025e-10	5	0.307472488305345
	5	0	-1.73299346918666e-05
	0	0	1.73299346918634e-05
 19	2.258385e-10	5	0.309670357175127
	5	0	-1.56315066838612e-05
	0	0	1.5631506683866e-05
 20	2.52510499999999e-10	5	0.313298409516404
	5	0	-1.15734455083697e-05
	0	0	1.15734455083643e-05
 21	2.97183257792498e-10	5	0.317375895206165
	5	0	-6.68146433879296e-06
	0	0	6.68146433879869e-06
 22	3.43334245655331e-10	5	0.319737359735245
	5	0	-3.55218302371107e-06
	0	0	3.55218302370568e-06
 23	3.94648070400037e-10	5	0.321219628819452
	5	0	-2.22508755018023e-06
	0	0	2.22508755018543e-06
 24	4.54135255214947e-10	5	0.322258644304131
	5	0	-1.2681544961696e-06
	0	0	1.26815449616415e-06
 25	5.39969463156607e-10	5	0.323221003022492
	5	0	-9.74212547134837e-07
	0	0	9.7421254714019e-07
 26	6.62640957400752e-10	5	0.324131341906241
	5	0	-5.09977869581009e-07
	0	0	5.09977869575774e-07
 27	8.25801380624733e-10	5	0.32497865309608
	5	0	-5.28646206823977e-07
	0	0	5.28646206829303e-07
 28	1.06311263387922e-09	5	0.325855160022834
	5	0	-2.10052600741973e-07
	0	0	2.1005260073662e-07
 29	1.44686428946035e-09	5	0.326825582065583
	5	0	-2.9570328641689e-07
	0	0	2.95703286422259e-07
 30	2.08167467174672e-09	5	0.32786747088709
	5	0	-3.25493473172364e-08
	0	0	3.25493473118602e-08
 31	3.01779433658077e-09	5	0.328856251657641
	5	0	-1.78702244024251e-07
	0	0	1.78702244029616e-07
 32	4.40175556510675e-09	5	0.329821408689999
	5	0	3.92241184257037e-08
	0	0	-3.92241184310583e-08
 33	6.00175556510675e-09	5	0.330597487182179
	5	0	-1.36234590367087e-07
	0	0	1.36234590372449e-07
 34	7.60175556510675e-09	5	0.331176348221136
	5	0	6.38762987235927e-08
	0	0	-6.38762987289482e-08
 35	9.20175556510675e-09	5	0.331636450976884
	5	0	-1.2138980600491e-07
	0	0	1.21389806010259e-07
 36	1.08017555651068e-08	5	0.332017857771881
	5	0	7.37132929759167e-08
	0	0	-7.37132929812539e-08
 37	1.24017555651068e-08	5	0.332343255637439
	5	0	-1.14388690531679e-07
	0	0	1.14388690537014e-07
 38	1.40017555651068e-08	5	0.332626823573109
	5	0	7.89420336027451e-08
	0	0	-7.89420336080821e-08
 39	1.56017555651068e-08	5	0.332877900313112
	5	0	-1.10327291607852e-07
	0	0	1.10327291613177e-07
 40	1.72017555651068e-08	5	0.333103076598696
	5	0	8.21795899289583e-08
	0	0	-8.21795899342794e-08
 41	1.88017555651068e-08	5	0.333307072421425
	5	0	-1.07679734180237e-07
	0	0	1.07679734185555e-07
 42	2.04017555651068e-08	5	0.333493481253148
	5	0	8.43779634142258e-08
	0	0	-8.43779634195408e-08
 43	2.20017555651068e-08	5	0.333665011460989
	5	0	-1.05819906552832e-07
	0	0	1.0581990655815e-07
 44	2.36017555651068e-08	5	0.333823835889635
	5	0	8.59661854833014e-08
	0	0	-8.59661854886149e-08
 45	2.52017555651068e-08	5	0.333971648783072
	5	0	-1.04443464958381e-07
	0	0	1.04443464963695e-07
 46	2.68017555651068e-08	5	0.334109862928109
	5	0	8.71660287471371e-08
	0	0	-8.71660287524556e-08
 47	2.84017555651068e-08	5	0.334239606951827
	5	0	-1.03384700061262e-07
	0	0	1.03384700066583e-07
 48	3.00017555651068e-08	5	0.334361850251943
	5	0	8.81036189452334e-08
	0	0	-8.81036189505613e-08
 49	3.16017555651068e-08	5	0.334477381634657
	5	0	-1.02545710623692e-07
	0	0	1.02545710629013e-07
 50	3.32017555651068e-08	5	0.33458689446929
	5	0	8.88559372302113e-08
	0	0	-8.88559372355434e-08
 51	3.48017555651068e-08	5	0.334690961368153
	5	0	-1.01864968865838e-07
	0	0	1.01864968871195e-07
 52	3.64017555651068e-08	5	0.334790094929803
	5	0	8.94726041784842e-08
	0	0	-8.94726041838636e-08
 53	3.80017555651068e-08	5	0.334884723808235
	5	0	-1.01301883657283e-07
	0	0	1.01301883662644e-07
 54	3.96017555651068e-08	5	0.334975237308203
	5	0	8.99870263013442e-08
	0	0	-8.99870263066991e-08
 55	4.12017555651068e-08	5	0.335061964586951
	5	0	-1.00828606182119e-07
	0	0	1.00828606187478e-07
 56	4.28017555651068e-08	5	0.335145208011436
	5	0	9.04225079143817e-08
	0	0	-9.04225079197402e-08
 57	4.44017555651068e-08	5	0.33522522580209
	5	0	-1.00425402116535e-07
	0	0	1.00425402121896e-07
 58	4.60017555651068e-08	5	0.335302257297208
	5	0	9.07957946992452e-08
	0	0	-9.07957947046052e-08
 59	4.76017555651068e-08	5	0.335376508793354
	5	0	-1.00077902396257e-07
	0	0	1.0007790240162e-07
 60	4.92017555651068e-08	5	0.335448172845732
	5	0	9.11192250243896e-08
	0	0	-9.11192250297497e-08
 61	5.08017555651068e-08	5	0.33551741687516
	5	0	-9.97753996685445e-08
	0	0	9.97753996739105e-08
 62	5.24017555651068e-08	5	0.335584398003111
	5	0	9.14020875728638e-08
	0	0	-9.14020875782349e-08
 63	5.40017555651068e-08	5	0.33564925396727
	5	0	-9.95097543263946e-08
	0	0	9.95097543317733e-08
 64	5.56017555651068e-08	5	0.335712114576091
	5	0	9.16515068624757e-08
	0	0	-9.16515068678477e-08
 65	5.72017555651068e-08	5	0.33577309451035
	5	0	-9.92746701301254e-08
	0	0	9.92746701354855e-08
 66	5.88017555651068e-08	5	0.335832302198176
	5	0	9.18730375464803e-08
	0	0	-9.18730375518454e-08
 67	6.04017555651068e-08	5	0.335889834136958
	5	0	-9.90652016163537e-08
	0	0	9.90652016217086e-08
 68	6.20017555651068e-08	5	0.335945781788587
	5	0	9.20710733270471e-08
	0	0	-9.20710733324018e-08
 69	6.36017555651068e-08	5	0.336000227116142
	5	0	-9.88774112174538e-08
	0	0	9.88774112228106e-08
 70	6.52017555651068e-08	5	0.336053247953021
	5	0	9.22491345541604e-08
	0	0	-9.22491345595077e-08
 71	6.68017555651068e-08	5	0.336104914504238
	5	0	-9.87081256144063e-08
	0	0	9.8708125619758e-08
 72	6.84017555651068e-08	5	0.336155293535217
	5	0	9.24100744817559e-08
	0	0	-9.24100744871118e-08
 73	7.00017555651068e-08	5	0.33620444563562
	5	0	-9.855475939187e-08
	0	0	9.85547593972292e-08
 74	7.16017555651068e-08	5	0.336252428492797
	5	0	9.2556229787879e-08
	0	0	-9.25562297932331e-08
 75	7.32017555651068e-08	5	0.336299294756349
	5	0	-9.84151852835962e-08
	0	0	9.84151852889603e-08
 76	7.48017555651068e-08	5	0.336345094600214
	5	0	9.26895321561236e-08
	0	0	-9.26895321614904e-08
 77	7.64017555651068e-08	5	0.336389874059238
	5	0	-9.82876372691433e-08
	0	0	9.82876372745203e-08
 78	7.80017555651068e-08	5	0.336433677037416
	5	0	9.28115921733363e-08
	0	0	-9.28115921787192e-08
 79	7.90008777825534e-08	5	0.336460551366838
	5	0	-9.81918530603836e-08
	0	0	9.81918530657519e-08
 80	8e-08	5	0.336487070457914
	5	0	9.28827022082314e-08
	0	0	-9.28827022135932e-08
Plotname: Measurement Results for transient1 Analysis tran
Flags: real
No. Variables:        4
No. Points:        1
Variables:	0	dummy	dummy
		1	delay_d0000	 plot=0 grid=0
		2	slew_d0000	 plot=0 grid=0
		3	temper	C plot=0 grid=0
Values:
 0	0	nan	nan
	25
Plotname: Transient Analysis `transient2': time = (0 s -> 80 ns)
Flags: real
No. Variables:        9
No. Points:       81
Variables:	0	time	s
		1	A	V plot=0 grid=0
		2	Y	V plot=0 grid=0
		3	VDD	V plot=0 grid=0
		4	GND	V plot=0 grid=0
		5	V_A:p	A plot=0 grid=0
		6	V_GND:p	A plot=0 grid=0
		7	V_VDD:p	A plot=0 grid=0
		8	V_Y:p	A plot=0 grid=0
Values:
 0	0	0	0
	5	0	0
	0	0	0
 1	1e-11	0	0
	5	0	0
	0	0	0
 2	3e-11	0	0
	5	0	0
	0	0	0
 3	7e-11	0	0
	5	0	0
	0	0	0
 4	1e-10	0	0
	5	0	0
	0	0	0
 5	1.008335e-10	0.0416750000000001	0.00103197300565619
	5	0	-0.000247623996559206
	0	0	0.000247623996559205
 6	1.025005e-10	0.125025	0.00311266434180285
	5	0	-0.000251642070906646
	0	0	0.000251642070906645
 7	1.058345e-10	0.291725000000001	0.00736494878951347
	5	0	-0.000258530028409244
	0	0	0.000258530028409243
 8	1.125025e-10	0.625125000000002	0.0165336968675967
	5	0	-0.000291484853323303
	0	0	0.000291484853323303
 9	1.258385e-10	1.291925	0.0364018920339605
	5	0	-0.000304441816386615
	0	0	0.000304441816386614
 10	1.3001500001e-10	1.5007500005	0.043042633216523
	5	0	-0.000331568351695936
	0	0	0.000331568351695936
 11	1.3836800003e-10	1.91840000149999	0.0563905416067329
	5	0	-0.000307622758579509
	0	0	0.000307622758579509
 12	1.5507400007e-10	2.75370000349997	0.0831739976550629
	5	0	-0.000333666741959949
	0	0	0.000333666741959949
 13	1.78886279554868e-10	3.94431397774338	0.122162699693867
	5	0	-0.000321267651461799
	0	0	0.000321267651461799
 14	2e-10	5	0.157793205216515
	5	0	-0.000353753231381035
	0	0	0.000353753231381036
 15	2.008335e-10	5	0.157885330946452
	5	0	-2.21057541918646e-05
	0	0	2.2105754191874e-05
 16	2.025005e-10	5	0.158068696048636
	5	0	-2.18930708833986e-05
	0	0	2.18930708833841e-05
 17	2.058345e-10	5	0.158422070286287
	5	0	-2.05033586653963e-05
	0	0	2.05033586654088e-05
 18	2.125025e-10	5	0.159102496268647
	5	0	-2.0314037114616e-05
	0	0	2.03140371146031e-05
 19	2.258385e-10	5	0.16035434250343
	5	0	-1.72338406728447e-05
	0	0	1.72338406728568e-05
 20	2.52510499999999e-10	5	0.162409203386372
	5	0	-1.35829095440723e-05
	0	0	1.35829095440604e-05
 21	2.95482131486613e-10	5	0.164621503030653
	5	0	-7.01020831418711e-06
	0	0	7.01020831419882e-06
 22	3.39904800314943e-10	5	0.165903322555147
	5	0	-4.53182277047179e-06
	0	0	4.53182277046052e-06
 23	3.8887977045113e-10	5	0.166696379989773
	5	0	-1.9454244694426e-06
	0	0	1.94542446945379e-06
 24	4.45478886981105e-10	5	0.167246199767758
	5	0	-1.94028865787464e-06
	0	0	1.94028865786331e-06
 25	5.26019704152705e-10	5	0.16774566349617
	5	0	-5.40261271481947e-07
	0	0	5.40261271493178e-07
 26	6.40346204116691e-10	5	0.168214578499278
	5	0	-1.10035608067343e-06
	0	0	1.10035608066222e-06
 27	7.91472526221131e-10	5	0.168649551649742
	5	0	-5.09278827804332e-08
	0	0	5.09278827916352e-08
 28	1.0096856947093e-09	5	0.169098675875489
	5	0	-7.72348573195312e-07
	0	0	7.72348573184064e-07
 29	1.35997456601888e-09	5	0.169595755461445
	5	0	2.04725764397909e-07
	0	0	-2.04725764386633e-07
 30	1.94236674485169e-09	5	0.170135159523927
	5	0	-5.75200902442886e-07
	0	0	5.75200902431615e-07
 31	2.8031221706737e-09	5	0.170648583229561
	5	0	3.36608417953085e-07
	0	0	-3.36608417941806e-07
 32	4.07008130103962e-09	5	0.171147635837252
	5	0	-4.94167940856184e-07
	0	0	4.94167940844922e-07
 33	5.67008130103962e-09	5	0.171580679473445
	5	0	3.85906689079474e-07
	0	0	-3.85906689068194e-07
 34	7.27008130103962e-09	5	0.171897901991923
	5	0	-4.65212662177488e-07
	0	0	4.65212662166208e-07
 35	8.87008130103962e-09	5	0.172147306174569
	5	0	4.02861272470858e-07
	0	0	-4.02861272459582e-07
 36	1.04700813010396e-08	5	0.172352542343096
	5	0	-4.54170659102639e-07
	0	0	4.54170659091373e-07
 37	1.20700813010396e-08	5	0.172526740029027
	5	0	4.10620892740827e-07
	0	0	-4.10620892729567e-07
 38	1.36700813010396e-08	5	0.172677957645722
	5	0	-4.48425642119396e-07
	0	0	4.48425642108141e-07
 39	1.52700813010396e-08	5	0.172811454144618
	5	0	4.15051171905939e-07
	0	0	-4.15051171894696e-07
 40	1.68700813010396e-08	5	0.172930892690802
	5	0	-4.44911154194305e-07
	0	0	4.44911154183067e-07
 41	1.84700813010396e-08	5	0.173038889795788
	5	0	4.17911531978204e-07
	0	0	-4.17911531966966e-07
 42	2.00700813010396e-08	5	0.173137414804811
	5	0	-4.42543130410361e-07
	0	0	4.42543130399124e-07
 43	2.16700813010396e-08	5	0.173227954285998
	5	0	4.1990791374834e-07
	0	0	-4.19907913737103e-07
 44	2.32700813010396e-08	5	0.173311687469188
	5	0	-4.40841556085454e-07
	0	0	4.40841556074229e-07
 45	2.48700813010396e-08	5	0.17338953799098
	5	0	4.21378578936088e-07
	0	0	-4.21378578924876e-07
 46	2.64700813010396e-08	5	0.173462267109788
	5	0	-4.39561205489766e-07
	0	0	4.39561205478562e-07
 47	2.80700813010396e-08	5	0.17353048704894
	5	0	4.2250587370894e-07
	0	0	-4.22505873697717e-07
 48	2.96700813010396e-08	5	0.173594717309812
	5	0	-4.38563786052118e-07
	0	0	4.38563786040912e-07
 49	3.12700813010396e-08	5	0.173655384126095
	5	0	4.23396734731302e-07
	0	0	-4.23396734720084e-07
 50	3.28700813010396e-08	5	0.173712857501566
	5	0	-4.37765425967233e-07
	0	0	4.37765425956022e-07
 51	3.44700813010396e-08	5	0.173767445873412
	5	0	4.24117985525451e-07
	0	0	-4.24117985514235e-07
 52	3.60700813010396e-08	5	0.173819421868051
	5	0	-4.37112331772193e-07
	0	0	4.37112331760963e-07
 53	3.76700813010396e-08	5	0.173869015761505
	5	0	4.24713510720363e-07
	0	0	-4.24713510709136e-07
 54	3.92700813010396e-08	5	0.173916434058307
	5	0	-4.36568432706358e-07
	0	0	4.36568432695124e-07
 55	4.08700813010396e-08	5	0.173961853169306
	5	0	4.25213307078114e-07
	0	0	-4.25213307066895e-07
 56	4.24700813010396e-08	5	0.174005433145198
	5	0	-4.36108649018239e-07
	0	0	4.36108649007017e-07
 57	4.40700813010396e-08	5	0.174047312087379
	5	0	4.25638565420121e-07
	0	0	-4.25638565408902e-07
 58	4.56700813010396e-08	5	0.17408761647031
	5	0	-4.35715009287842e-07
	0	0	4.35715009276613e-07
 59	4.72700813010396e-08	5	0.174126456414149
	5	0	4.26004675114141e-07
	0	0	-4.26004675102918e-07
 60	4.88700813010396e-08	5	0.174163933534065
	5	0	-4.35374303383496e-07
	0	0	4.35374303372261e-07
 61	5.04700813010396e-08	5	0.174200137041127
	5	0	4.26323078253762e-07
	0	0	-4.26323078242538e-07
 62	5.20700813010396e-08	5	0.17423514976121
	5	0	-4.35076606709634e-07
	0	0	4.35076606698407e-07
 63	5.36700813010396e-08	5	0.174269044969084
	5	0	4.26602456236906e-07
	0	0	-4.26602456225674e-07
 64	5.52700813010396e-08	5	0.174301891032404
	5	0	-4.34814320637973e-07
	0	0	4.34814320626753e-07
 65	5.68700813010396e-08	5	0.174333748867941
	5	0	4.26849513118177e-07
	0	0	-4.26849513106956e-07
 66	5.84700813010396e-08	5	0.17436467554167
	5	0	-4.34581530248837e-07
	0	0	4.34581530237609e-07
 67	6.00700813010396e-08	5	0.174394722239982
	5	0	4.27069506911563e-07
	0	0	-4.27069506900328e-07
 68	6.16700813010397e-08	5	0.174423937070918
	5	0	-4.3437356346422e-07
	0	0	4.34373563452988e-07
 69	6.32700813010397e-08	5	0.174452363455006
	5	0	4.2726661856586e-07
	0	0	-4.27266618554624e-07
 70	6.48700813010397e-08	5	0.174480042311505
	5	0	-4.3418668162309e-07
	0	0	4.3418668161186e-07
 71	6.64700813010397e-08	5	0.174507010787572
	5	0	4.27444213619269e-07
	0	0	-4.27444213608049e-07
 72	6.80700813010397e-08	5	0.174533303968876
	5	0	-4.34017857985533e-07
	0	0	4.34017857974316e-07
 73	6.96700813010397e-08	5	0.174558953879519
	5	0	4.27605031232548e-07
	0	0	-4.27605031221322e-07
 74	7.12700813010397e-08	5	0.174583990823463
	5	0	-4.3386461636147e-07
	0	0	4.3386461635025e-07
 75	7.28700813010397e-08	5	0.174608442599931
	5	0	4.27751323052021e-07
	0	0	-4.277513230408e-07
 76	7.44700813010397e-08	5	0.174632335557423
	5	0	-4.33724911665805e-07
	0	0	4.3372491165459e-07
 77	7.60700813010397e-08	5	0.174655693979884
	5	0	4.2788495676252e-07
	0	0	-4.27884956751311e-07
 78	7.76700813010397e-08	5	0.174678540916425
	5	0	-4.33597040231983e-07
	0	0	4.33597040220784e-07
 79	7.88350406505198e-08	5	0.174694865634089
	5	0	4.27991441998439e-07
	0	0	-4.27991441987234e-07
 80	8e-08	5	0.17471093850182
	5	0	-4.33510565166629e-07
	0	0	4.33510565155417e-07
Plotname: Measurement Results for transient2 Analysis tran
Flags: real
No. Variables:        4
No. Points:        1
Variables:	0	dummy	dummy
		1	delay_d0000	 plot=0 grid=0
		2	slew_d0000	 plot=0 grid=0
		3	temper	C plot=0 grid=0
Values:
 0	0	nan	nan
	25
Plotname: Transient Analysis `transient3': time = (0 s -> 80 ns)
Flags: real
No. Variables:        9
No. Points:       81
Variables:	0	time	s
		1	A	V plot=0 grid=0
		2	Y	V plot=0 grid=0
		3	VDD	V plot=0 grid=0
		4	GND	V plot=0 grid=0
		5	V_A:p	A plot=0 grid=0
		6	V_GND:p	A plot=0 grid=0
		7	V_VDD:p	A plot=0 grid=0
		8	V_Y:p	A plot=0 grid=0
Values:
 0	0	0	0
	5	0	0
	0	0	0
 1	1e-11	0	0
	5	0	0
	0	0	0
 2	3e-11	0	0
	5	0	0
	0	0	0
 3	7e-11	0	0
	5	0	0
	0	0	0
 4	1e-10	0	0
	5	0	0
	0	0	0
 5	1.008335e-10	0.0416750000000001	0.000522477848836861
	5	0	-0.000250739219598296
	0	0	0.000250739219598295
 6	1.025005e-10	0.125025	0.00157612828405183
	5	0	-0.00025491185909125
	0	0	0.000254911859091251
 7	1.058345e-10	0.291725000000001	0.00373099153182856
	5	0	-0.000262151907627126
	0	0	0.000262151907627125
 8	1.125025e-10	0.625125000000002	0.00838872925082439
	5	0	-0.000296664855311907
	0	0	0.000296664855311908
 9	1.258385e-10	1.291925	0.0184919574850824
	5	0	-0.000309407624274543
	0	0	0.000309407624274542
 10	1.3001500001e-10	1.5007500005	0.0218708577913924
	5	0	-0.000337813790485278
	0	0	0.00033781379048528
 11	1.3836800003e-10	1.91840000149999	0.0286529973157082
	5	0	-0.000311738658561017
	0	0	0.000311738658561014
 12	1.5507400007e-10	2.75370000349997	0.0422707634901799
	5	0	-0.000340375127783885
	0	0	0.000340375127783888
 13	1.78833223276484e-10	3.94166116382421	0.062065675889618
	5	0	-0.00032614202997013
	0	0	0.000326142029970128
 14	2e-10	5	0.0802661156194309
	5	0	-0.000361745028936047
	0	0	0.00036174502893605
 15	2.008335e-10	5	0.0803153621609689
	5	0	-2.36336132958986e-05
	0	0	2.36336132959041e-05
 16	2.025005e-10	5	0.0804125514916122
	5	0	-2.30079372635157e-05
	0	0	2.30079372635081e-05
 17	2.058345e-10	5	0.0806010730099404
	5	0	-2.22281800728395e-05
	0	0	2.22281800728429e-05
 18	2.125025e-10	5	0.0809644816941253
	5	0	-2.13721421265112e-05
	0	0	2.13721421265097e-05
 19	2.258385e-10	5	0.0816323427429025
	5	0	-1.86915082326729e-05
	0	0	1.86915082326763e-05
 20	2.52510499999999e-10	5	0.082725753378642
	5	0	-1.41042518518884e-05
	0	0	1.41042518518856e-05
 21	2.94670242123021e-10	5	0.0838787638637563
	5	0	-7.77463897300778e-06
	0	0	7.7746389730108e-06
 22	3.3827106278714e-10	5	0.0845474101364715
	5	0	-4.49386921945278e-06
	0	0	4.49386921944966e-06
 23	3.86141382845818e-10	5	0.0849582924751595
	5	0	-2.37272115766915e-06
	0	0	2.37272115767224e-06
 24	4.41373661772917e-10	5	0.0852415385350139
	5	0	-1.72989531381713e-06
	0	0	1.72989531381401e-06
 25	5.19398005687672e-10	5	0.0854962036530134
	5	0	-8.81239846048946e-07
	0	0	8.81239846052172e-07
 26	6.29805808313523e-10	5	0.0857343824117163
	5	0	-8.44571385909065e-07
	0	0	8.44571385905852e-07
 27	7.75281308915479e-10	5	0.0859548609300735
	5	0	-3.67885962114908e-07
	0	0	3.67885962118262e-07
 28	9.84545205801562e-10	5	0.0861822644067506
	5	0	-5.01460447231803e-07
	0	0	5.0146044722835e-07
 29	1.31906710956748e-09	5	0.0864338146602379
	5	0	-1.00115288970273e-07
	0	0	1.00115288973739e-07
 30	1.8765036993318e-09	5	0.0867082533881351
	5	0	-2.93743102934559e-07
	0	0	2.93743102931151e-07
 31	2.70180876229423e-09	5	0.0869700599273525
	5	0	3.99637622873052e-08
	0	0	-3.99637622838794e-08
 32	3.91393396832497e-09	5	0.0872239768022609
	5	0	-2.07548521733831e-07
	0	0	2.07548521730416e-07
 33	5.51393396832497e-09	5	0.0874527392107746
	5	0	9.31671428003039e-08
	0	0	-9.31671427968846e-08
 34	7.11393396832497e-09	5	0.0876187890737551
	5	0	-1.7619224936209e-07
	0	0	1.76192249358667e-07
 35	8.71393396832497e-09	5	0.087748629168953
	5	0	1.11272026395726e-07
	0	0	-1.11272026392289e-07
 36	1.0313933968325e-08	5	0.0878550844592067
	5	0	-1.64499847126281e-07
	0	0	1.64499847122843e-07
 37	1.1913933968325e-08	5	0.0879452098040886
	5	0	1.19436998885029e-07
	0	0	-1.19436998881587e-07
 38	1.3513933968325e-08	5	0.0880232964677167
	5	0	-1.58480506667576e-07
	0	0	1.58480506664122e-07
 39	1.5113933968325e-08	5	0.0880921328588691
	5	0	1.24062134975936e-07
	0	0	-1.24062134972481e-07
 40	1.6713933968325e-08	5	0.0881536481405155
	5	0	-1.54819952044921e-07
	0	0	1.54819952041465e-07
 41	1.8313933968325e-08	5	0.0882092191750506
	5	0	1.27034258414497e-07
	0	0	-1.27034258411039e-07
 42	1.9913933968325e-08	5	0.0882598758328069
	5	0	-1.52362763761715e-07
	0	0	1.52362763758257e-07
 43	2.1513933968325e-08	5	0.0883063967358582
	5	0	1.29102135669759e-07
	0	0	-1.29102135666321e-07
 44	2.3113933968325e-08	5	0.0883493955487809
	5	0	-1.5060171878689e-07
	0	0	1.50601718783447e-07
 45	2.4713933968325e-08	5	0.0883893545360438
	5	0	1.30622048416647e-07
	0	0	-1.30622048413217e-07
 46	2.6313933968325e-08	5	0.0884266684175552
	5	0	-1.49279165988377e-07
	0	0	1.49279165984934e-07
 47	2.7913933968325e-08	5	0.0884616561397723
	5	0	1.31785127991501e-07
	0	0	-1.31785127988068e-07
 48	2.9513933968325e-08	5	0.0884945863216386
	5	0	-1.48250395880876e-07
	0	0	1.48250395877436e-07
 49	3.1113933968325e-08	5	0.088525680633517
	5	0	1.32703062921401e-07
	0	0	-1.32703062917966e-07
 50	3.2713933968325e-08	5	0.0885551299792803
	5	0	-1.4742791288384e-07
	0	0	1.47427912880403e-07
 51	3.4313933968325e-08	5	0.0885830945428769
	5	0	1.33445453947251e-07
	0	0	-1.3344545394383e-07
 52	3.5913933968325e-08	5	0.0886097147467142
	5	0	-1.46755733058663e-07
	0	0	1.46755733055255e-07
 53	3.7513933968325e-08	5	0.0886351100396236
	5	0	1.34057909359109e-07
	0	0	-1.34057909355705e-07
 54	3.9113933968325e-08	5	0.08865938664377
	5	0	-1.46196388726812e-07
	0	0	1.4619638872341e-07
 55	4.0713933968325e-08	5	0.088682635969823
	5	0	1.34571548358309e-07
	0	0	-1.34571548354907e-07
 56	4.2313933968325e-08	5	0.0887049402581433
	5	0	-1.45723869906067e-07
	0	0	1.45723869902679e-07
 57	4.3913933968325e-08	5	0.0887263709990425
	5	0	1.35008322025193e-07
	0	0	-1.3500832202181e-07
 58	4.5513933968325e-08	5	0.0887469931264891
	5	0	-1.4531956322186e-07
	0	0	1.45319563218471e-07
 59	4.7113933968325e-08	5	0.0887668635941876
	5	0	1.3538415185872e-07
	0	0	-1.35384151855328e-07
 60	4.8713933968325e-08	5	0.0887860345395075
	5	0	-1.44969802071518e-07
	0	0	1.44969802068134e-07
 61	5.0313933968325e-08	5	0.0888045520626358
	5	0	1.35710862916773e-07
	0	0	-1.35710862913399e-07
 62	5.1913933968325e-08	5	0.0888224586393698
	5	0	-1.4466432891083e-07
	0	0	1.44664328907447e-07
 63	5.3513933968325e-08	5	0.0888397921041272
	5	0	1.35997418869866e-07
	0	0	-1.35997418866489e-07
 64	5.5113933968325e-08	5	0.0888565875047507
	5	0	-1.4439529687799e-07
	0	0	1.44395296874611e-07
 65	5.6713933968325e-08	5	0.0888728762706805
	5	0	1.36250736183608e-07
	0	0	-1.36250736180232e-07
 66	5.8313933968325e-08	5	0.0888886876476229
	5	0	-1.44156602416346e-07
	0	0	1.44156602412977e-07
 67	5.9913933968325e-08	5	0.0889040480255939
	5	0	1.36476235638095e-07
	0	0	-1.36476235634731e-07
 68	6.1513933968325e-08	5	0.088918982054028
	5	0	-1.43943427678143e-07
	0	0	1.43943427674783e-07
 69	6.3113933968325e-08	5	0.0889335121038398
	5	0	1.36678224919714e-07
	0	0	-1.36678224916342e-07
 70	6.4713933968325e-08	5	0.0889476591375887
	5	0	-1.43751919675287e-07
	0	0	1.43751919671916e-07
 71	6.6313933968325e-08	5	0.0889614422817909
	5	0	1.36860169665049e-07
	0	0	-1.36860169661672e-07
 72	6.7913933968325e-08	5	0.0889748795082033
	5	0	-1.43578960807535e-07
	0	0	1.43578960804142e-07
 73	6.9513933968325e-08	5	0.0889879872956809
	5	0	1.37024889105839e-07
	0	0	-1.37024889102465e-07
 74	7.1113933968325e-08	5	0.0890007811651153
	5	0	-1.43422001811837e-07
	0	0	1.43422001808465e-07
 75	7.2713933968325e-08	5	0.0890132754133585
	5	0	1.37174699676195e-07
	0	0	-1.3717469967282e-07
 76	7.4313933968325e-08	5	0.089025483534333
	5	0	-1.43278938202246e-07
	0	0	1.43278938198865e-07
 77	7.5913933968325e-08	5	0.0890374180105571
	5	0	1.37311522027344e-07
	0	0	-1.37311522023954e-07
 78	7.7513933968325e-08	5	0.0890490906454356
	5	0	-1.43148017553107e-07
	0	0	1.43148017549706e-07
 79	7.87569669841625e-08	5	0.08905798508662
	5	0	1.37423491937277e-07
	0	0	-1.37423491933859e-07
 80	8e-08	5	0.0890667330505194
	5	0	-1.43053746681336e-07
	0	0	1.43053746677946e-07
Plotname: Measurement Results for transient3 Analysis tran
Flags: real
No. Variables:        4
No. Points:        1
Variables:	0	dummy	dummy
		1	delay_d0000	 plot=0 grid=0
		2	slew_d0000	 plot=0 grid=0
		3	temper	C plot=0 grid=0
Values:
 0	0	nan	nan
	25
Plotname: Transient Analysis `transient4': time = (0 s -> 80 ns)
Flags: real
No. Variables:        9
No. Points:       81
Variables:	0	time	s
		1	A	V plot=0 grid=0
		2	Y	V plot=0 grid=0
		3	VDD	V plot=0 grid=0
		4	GND	V plot=0 grid=0
		5	V_A:p	A plot=0 grid=0
		6	V_GND:p	A plot=0 grid=0
		7	V_VDD:p	A plot=0 grid=0
		8	V_Y:p	A plot=0 grid=0
Values:
 0	0	0	0
	5	0	0
	0	0	0
 1	1e-11	0	0
	5	0	0
	0	0	0
 2	3e-11	0	0
	5	0	0
	0	0	0
 3	7e-11	0	0
	5	0	0
	0	0	0
 4	1e-10	0	0
	5	0	0
	0	0	0
 5	1.008335e-10	0.0416750000000001	0.000175632306061163
	5	0	-0.000252859948738502
	0	0	0.000252859948738502
 6	1.025005e-10	0.125025	0.000529870156098963
	5	0	-0.000257140555215844
	0	0	0.000257140555215843
 7	1.058345e-10	0.291725000000001	0.00125469376060023
	5	0	-0.00026462808629855
	0	0	0.000264628086298551
 8	1.125025e-10	0.625125000000002	0.0028240410756552
	5	0	-0.000300223976712715
	0	0	0.000300223976712713
 9	1.258385e-10	1.291925	0.00623062435814751
	5	0	-0.000312838401669278
	0	0	0.00031283840166928
 10	1.3001500001e-10	1.5007500005	0.00737009581434732
	5	0	-0.000341951850548728
	0	0	0.000341951850548727
 11	1.3836800003e-10	1.91840000149999	0.00965549288598345
	5	0	-0.000314692823093813
	0	0	0.000314692823093815
 12	1.5507400007e-10	2.75370000349997	0.0142465129281381
	5	0	-0.000344857522601664
	0	0	0.000344857522601662
 13	1.7867669758868e-10	3.93383487943398	0.0208788256382893
	5	0	-0.000329537871932974
	0	0	0.000329537871932977
 14	2e-10	5	0.0270685998847404
	5	0	-0.000367139308081051
	0	0	0.00036713930808105
 15	2.008335e-10	5	0.0270857615007345
	5	0	-2.47077855014239e-05
	0	0	2.47077855014264e-05
 16	2.025005e-10	5	0.0271193756898903
	5	0	-2.36869679865818e-05
	0	0	2.36869679865718e-05
 17	2.058345e-10	5	0.0271850555421801
	5	0	-2.35930697087866e-05
	0	0	2.35930697087927e-05
 18	2.125025e-10	5	0.0273116268533513
	5	0	-2.19634910552225e-05
	0	0	2.19634910552135e-05
 19	2.258385e-10	5	0.0275440715344279
	5	0	-1.98681852581609e-05
	0	0	1.98681852581694e-05
 20	2.52510499999999e-10	5	0.0279239887918269
	5	0	-1.43175308200205e-05
	0	0	1.43175308200115e-05
 21	2.94142246121953e-10	5	0.028319209649304
	5	0	-8.46628558556405e-06
	0	0	8.46628558557255e-06
 22	3.3720860267436e-10	5	0.0285485877618764
	5	0	-4.31648771342353e-06
	0	0	4.31648771341451e-06
 23	3.84364034996461e-10	5	0.0286889280111098
	5	0	-2.82620156484878e-06
	0	0	2.82620156485776e-06
 24	4.38711348435398e-10	5	0.0287853021630328
	5	0	-1.42972118648519e-06
	0	0	1.42972118647631e-06
 25	5.15103665726145e-10	5	0.0288713387278241
	5	0	-1.27326999412947e-06
	0	0	1.27326999413853e-06
 26	6.22985355313789e-10	5	0.0289515975402465
	5	0	-5.12215168257055e-07
	0	0	5.12215168248275e-07
 27	7.6481826376774e-10	5	0.0290257770516691
	5	0	-7.43000124004955e-07
	0	0	7.43000124013775e-07
 28	9.68320282018058e-10	5	0.029102225806918
	5	0	-1.58597933861238e-07
	0	0	1.58597933852388e-07
 29	1.29266601479931e-09	5	0.029186750888252
	5	0	-4.66846441089825e-07
	0	0	4.66846441098715e-07
 30	1.83388615206882e-09	5	0.0292792959192958
	5	0	5.64624016698714e-08
	0	0	-5.64624016787619e-08
 31	2.63630999384598e-09	5	0.0293677412906323
	5	0	-3.20997086727723e-07
	0	0	3.209970867366e-07
 32	3.81312710122534e-09	5	0.0294533926521631
	5	0	1.46319700066108e-07
	0	0	-1.46319700074978e-07
 33	5.41312710122535e-09	5	0.0295324991575698
	5	0	-2.64979517161933e-07
	0	0	2.6497951717081e-07
 34	7.01312710122535e-09	5	0.0295895678623787
	5	0	1.79376400826412e-07
	0	0	-1.79376400835288e-07
 35	8.61312710122535e-09	5	0.029634030246118
	5	0	-2.46070035659e-07
	0	0	2.46070035667873e-07
 36	1.02131271012253e-08	5	0.0296703956672241
	5	0	1.91521844695454e-07
	0	0	-1.91521844704331e-07
 37	1.18131271012253e-08	5	0.0297011305701601
	5	0	-2.37624258470866e-07
	0	0	2.37624258479748e-07
 38	1.34131271012253e-08	5	0.0297277262733897
	5	0	1.97730644197486e-07
	0	0	-1.97730644206369e-07
 39	1.50131271012253e-08	5	0.0297511491423546
	5	0	-2.32865007123589e-07
	0	0	2.32865007132469e-07
 40	1.66131271012253e-08	5	0.0297720646555467
	5	0	2.01491677812098e-07
	0	0	-2.01491677820983e-07
 41	1.82131271012253e-08	5	0.0297909476350985
	5	0	-2.29816206702781e-07
	0	0	2.29816206711671e-07
 42	1.98131271012253e-08	5	0.0298081516750406
	5	0	2.04010087190499e-07
	0	0	-2.04010087199389e-07
 43	2.14131271012253e-08	5	0.0298239444868393
	5	0	-2.27699364520636e-07
	0	0	2.27699364529532e-07
 44	2.30131271012254e-08	5	0.0298385360713931
	5	0	2.05811928027545e-07
	0	0	-2.05811928036447e-07
 45	2.46131271012254e-08	5	0.029852091917628
	5	0	-2.26145757070546e-07
	0	0	2.26145757079458e-07
 46	2.62131271012254e-08	5	0.0298647467703776
	5	0	2.07163418229286e-07
	0	0	-2.07163418238207e-07
 47	2.78131271012254e-08	5	0.0298766099233512
	5	0	-2.24958207431101e-07
	0	0	2.24958207440014e-07
 48	2.94131271012254e-08	5	0.029887772901215
	5	0	2.08213680871133e-07
	0	0	-2.0821368088002e-07
 49	3.10131271012254e-08	5	0.029898311583649
	5	0	-2.24021764308175e-07
	0	0	2.2402176431706e-07
 50	3.26131271012254e-08	5	0.0299082909198138
	5	0	2.09052700254392e-07
	0	0	-2.09052700263278e-07
 51	3.42131271012254e-08	5	0.0299177656951131
	5	0	-2.23264923029543e-07
	0	0	2.23264923038435e-07
 52	3.58131271012254e-08	5	0.029926783628386
	5	0	2.09737963275711e-07
	0	0	-2.09737963284592e-07
 53	3.74131271012254e-08	5	0.0299353855429601
	5	0	-2.22640894999073e-07
	0	0	2.22640895007948e-07
 54	3.90131271012254e-08	5	0.0299436075026812