HEADER
"PSFversion" "1.00"
"I0n" "YSDFlipFlopAsyncReset"
