Title: * * design : BUFX8 / process : typical / id : D0000 (2014/11/13 17:57:01) * *
Date: 5:57:01 PM, Thur Nov 13, 2014
Plotname: Transient Analysis `transient1': time = (0 s -> 80 ns)
Flags: real
No. Variables:        9
No. Points:       84
Variables:	0	time	s
		1	A	V plot=0 grid=0
		2	Y	V plot=0 grid=0
		3	VDD	V plot=0 grid=0
		4	GND	V plot=0 grid=0
		5	V_A:p	A plot=0 grid=0
		6	V_GND:p	A plot=0 grid=0
		7	V_VDD:p	A plot=0 grid=0
		8	V_Y:p	A plot=0 grid=0
Values:
 0	0	0	0
	5	0	0
	0	0	0
 1	1e-11	0	0
	5	0	0
	0	0	0
 2	3e-11	0	0
	5	0	0
	0	0	0
 3	7e-11	0	0
	5	0	0
	0	0	0
 4	1e-10	0	0
	5	0	0
	0	0	0
 5	1.008335e-10	0.0416750000000001	0.00155541996775047
	5	0	-0.000373226147032258
	0	0	0.00037322614703226
 6	1.025005e-10	0.125025	0.00468996756248235
	5	0	-0.000378914847510728
	0	0	0.000378914847510727
 7	1.058345e-10	0.291725000000001	0.0110856752057229
	5	0	-0.000388416603403727
	0	0	0.000388416603403728
 8	1.125025e-10	0.625125000000002	0.0247586777343348
	5	0	-0.000431799505127131
	0	0	0.000431799505127131
 9	1.258385e-10	1.291925	0.0560162596667173
	5	0	-0.00050574044493512
	0	0	0.00050574044493512
 10	1.3001500001e-10	1.5007500005	0.0664743999465204
	5	0	-0.000495877201998138
	0	0	0.000495877201998138
 11	1.3836800003e-10	1.91840000149999	0.0874892793564652
	5	0	-0.000510462046791199
	0	0	0.000510462046791199
 12	1.52584542420413e-10	2.62922712102065	0.124420249117795
	5	0	-0.00052863645563412
	0	0	0.00052863645563412
 13	1.71192205265736e-10	3.55961026328682	0.174888160193097
	5	0	-0.000556248013925364
	0	0	0.000556248013925364
 14	1.8908719011638e-10	4.45435950581898	0.226663336116102
	5	0	-0.000601063408757581
	0	0	0.000601063408757581
 15	2e-10	5	0.259703131284357
	5	0	-0.000609982894948878
	0	0	0.00060998289494888
 16	2.008335e-10	5	0.260132473493858
	5	0	-0.000103021526235147
	0	0	0.000103021526235134
 17	2.025005e-10	5	0.260980714701543
	5	0	-0.000100515656693948
	0	0	0.000100515656693994
 18	2.058345e-10	5	0.262611678968631
	5	0	-9.516092056486e-05
	0	0	9.51609205648209e-05
 19	2.125025e-10	5	0.265608263150819
	5	0	-8.45981790747719e-05
	0	0	8.45981790748121e-05
 20	2.258385e-10	5	0.27058817404246
	5	0	-6.47692747200129e-05
	0	0	6.47692747199696e-05
 21	2.43830165827783e-10	5	0.275467573446691
	5	0	-4.37120515895835e-05
	0	0	4.3712051589626e-05
 22	2.63415107121898e-10	5	0.278979205224438
	5	0	-2.80090069963727e-05
	0	0	2.80090069963317e-05
 23	2.85034707761181e-10	5	0.28143491581934
	5	0	-1.74258863888382e-05
	0	0	1.74258863888778e-05
 24	3.10402024906618e-10	5	0.283219055640854
	5	0	-1.07070036143758e-05
	0	0	1.07070036143364e-05
 25	3.43250433685331e-10	5	0.284639831295891
	5	0	-6.59399517970413e-06
	0	0	6.59399517974274e-06
 26	3.92456758143393e-10	5	0.285932369390675
	5	0	-3.91309454268268e-06
	0	0	3.91309454264435e-06
 27	4.52217463258423e-10	5	0.2869411795913
	5	0	-2.83923734009128e-06
	0	0	2.83923734012916e-06
 28	5.31405339013436e-10	5	0.287873412601937
	5	0	-1.86973163044626e-06
	0	0	1.86973163040826e-06
 29	6.44357241149597e-10	5	0.288808814713197
	5	0	-1.44283683953996e-06
	0	0	1.44283683957807e-06
 30	8.29197014541478e-10	5	0.289840001986938
	5	0	-7.88690547043296e-07
	0	0	7.88690547005388e-07
 31	1.11913292370036e-09	5	0.290882638523329
	5	0	-6.49747293024501e-07
	0	0	6.49747293062529e-07
 32	1.54641874516894e-09	5	0.291874467567367
	5	0	-2.78745642349796e-07
	0	0	2.78745642311726e-07
 33	2.17431154595953e-09	5	0.292838642795079
	5	0	-3.35484139766249e-07
	0	0	3.35484139804317e-07
 34	3.13548340254769e-09	5	0.29381723314665
	5	0	-7.17653045681853e-08
	0	0	7.17653045301471e-08
 35	4.62556203855198e-09	5	0.294809751855067
	5	0	-1.94669198198809e-07
	0	0	1.94669198236861e-07
 36	6.22556203855198e-09	5	0.295546878756231
	5	0	1.03868825512789e-08
	0	0	-1.03868825893272e-08
 37	7.82556203855198e-09	5	0.2961029733559
	5	0	-1.49411124118373e-07
	0	0	1.49411124156437e-07
 38	9.42556203855198e-09	5	0.29654801793743
	5	0	3.81493860848899e-08
	0	0	-3.81493861229724e-08
 39	1.1025562038552e-08	5	0.296918697412057
	5	0	-1.30819848208288e-07
	0	0	1.30819848246345e-07
 40	1.2625562038552e-08	5	0.297236259584163
	5	0	5.14287110266229e-08
	0	0	-5.14287110646783e-08
 41	1.4225562038552e-08	5	0.297513978317563
	5	0	-1.20858989126837e-07
	0	0	1.2085898916489e-07
 42	1.5825562038552e-08	5	0.297760765110431
	5	0	5.91616956351051e-08
	0	0	-5.91616956731675e-08
 43	1.7425562038552e-08	5	0.29798282312975
	5	0	-1.14676796208248e-07
	0	0	1.14676796246302e-07
 44	1.9025562038552e-08	5	0.298184709800835
	5	0	6.42045322692393e-08
	0	0	-6.42045323072963e-08
 45	2.0625562038552e-08	5	0.298369805046673
	5	0	-1.10478940283143e-07
	0	0	1.10478940321217e-07
 46	2.2225562038552e-08	5	0.298540746771385
	5	0	6.77429121946169e-08
	0	0	-6.77429122326772e-08
 47	2.3825562038552e-08	5	0.298699571361159
	5	0	-1.0744965687844e-07
	0	0	1.07449656916504e-07
 48	2.5425562038552e-08	5	0.298847940669623
	5	0	7.03567322148755e-08
	0	0	-7.03567322529123e-08
 49	2.7025562038552e-08	5	0.298987172111142
	5	0	-1.05165190429675e-07
	0	0	1.05165190467697e-07
 50	2.8625562038552e-08	5	0.299118379338392
	5	0	7.23627855116319e-08
	0	0	-7.23627855496466e-08
 51	3.0225562038552e-08	5	0.299242461206941
	5	0	-1.03383851009782e-07
	0	0	1.03383851047795e-07
 52	3.1825562038552e-08	5	0.29936019996787
	5	0	7.39485621749477e-08
	0	0	-7.39485622129303e-08
 53	3.3425562038552e-08	5	0.299472234808611
	5	0	-1.0195787119266e-07
	0	0	1.01957871230657e-07
 54	3.5025562038552e-08	5	0.299579135935992
	5	0	7.52319902961153e-08
	0	0	-7.52319903341082e-08
 55	3.6625562038552e-08	5	0.299681373215517
	5	0	-1.00791909437886e-07
	0	0	1.00791909475903e-07
 56	3.8225562038552e-08	5	0.299779374904325
	5	0	7.6290887775047e-08
	0	0	-7.62908878130839e-08
 57	3.9825562038552e-08	5	0.299873495937037
	5	0	-9.98217456058262e-08
	0	0	9.98217456438529e-08
 58	4.1425562038552e-08	5	0.299964065974764
	5	0	7.71786363364006e-08
	0	0	-7.71786363744288e-08
 59	4.3025562038552e-08	5	0.300051359317591
	5	0	-9.90025720584599e-08
	0	0	9.90025720964935e-08
 60	4.4625562038552e-08	5	0.300135635011303
	5	0	7.79330484433521e-08
	0	0	-7.79330484813636e-08
 61	4.6225562038552e-08	5	0.300217109191579
	5	0	-9.83021938650187e-08
	0	0	9.83021939030403e-08
 62	4.7825562038552e-08	5	0.300295989003027
	5	0	7.85816404898853e-08
	0	0	-7.8581640527929e-08
 63	4.9425562038552e-08	5	0.300372447621342
	5	0	-9.76968957371347e-08
	0	0	9.76968957751598e-08
 64	5.1025562038552e-08	5	0.30044665319133
	5	0	7.91449024212245e-08
	0	0	-7.9144902459246e-08
 65	5.2625562038552e-08	5	0.300518746504086
	5	0	-9.71688315756093e-08
	0	0	9.71688316136581e-08
 66	5.4225562038552e-08	5	0.300588865833574
	5	0	7.96383980958709e-08
	0	0	-7.96383981339131e-08
 67	5.5825562038552e-08	5	0.300657127119215
	5	0	-9.67043207521661e-08
	0	0	9.67043207902182e-08
 68	5.7425562038552e-08	5	0.300723645371828
	5	0	8.00741562181697e-08
	0	0	-8.00741562562456e-08
 69	5.9025562038552e-08	5	0.300788517157707
	5	0	-9.62927042000352e-08
	0	0	9.62927042380822e-08
 70	6.0625562038552e-08	5	0.300851839103337
	5	0	8.04616161522146e-08
	0	0	-8.04616161902635e-08
 71	6.2225562038552e-08	5	0.300913692460107
	5	0	-9.59255571102734e-08
	0	0	9.5925557148312e-08
 72	6.3825562038552e-08	5	0.300974159136328
	5	0	8.08082861672621e-08
	0	0	-8.08082862052922e-08
 73	6.5425562038552e-08	5	0.30103330812404
	5	0	-9.55961351028112e-08
	0	0	9.55961351408328e-08
 74	6.7025562038552e-08	5	0.301091209411721
	5	0	8.11202110579597e-08
	0	0	-8.11202110959967e-08
 75	6.8625562038552e-08	5	0.301147922066552
	5	0	-9.52989770048127e-08
	0	0	9.52989770428614e-08
 76	7.0225562038552e-08	5	0.301203506323229
	5	0	8.14023104842327e-08
	0	0	-8.14023105222968e-08
 77	7.1825562038552e-08	5	0.30125801313131
	5	0	-9.50296149660582e-08
	0	0	9.50296150041477e-08
 78	7.3425562038552e-08	5	0.301311494669581
	5	0	8.16586278287352e-08
	0	0	-8.16586278668161e-08
 79	7.5025562038552e-08	5	0.301363995185875
	5	0	-9.47843595777891e-08
	0	0	9.47843596158564e-08
 80	7.6625562038552e-08	5	0.301415560149179
	5	0	8.18925159723003e-08
	0	0	-8.1892516010366e-08
 81	7.8225562038552e-08	5	0.301466228227055
	5	0	-9.4560138322893e-08
	0	0	9.4560138360957e-08
 82	7.9112781019276e-08	5	0.301493951678326
	5	0	8.20605010212737e-08
	0	0	-8.2060501059353e-08
 83	8e-08	5	0.301521416817852
	5	0	-9.44436793074568e-08
	0	0	9.44436793455766e-08
Plotname: Measurement Results for transient1 Analysis tran
Flags: real
No. Variables:        4
No. Points:        1
Variables:	0	dummy	dummy
		1	delay_d0000	 plot=0 grid=0
		2	slew_d0000	 plot=0 grid=0
		3	temper	C plot=0 grid=0
Values:
 0	0	nan	nan
	25
Plotname: Transient Analysis `transient2': time = (0 s -> 80 ns)
Flags: real
No. Variables:        9
No. Points:       84
Variables:	0	time	s
		1	A	V plot=0 grid=0
		2	Y	V plot=0 grid=0
		3	VDD	V plot=0 grid=0
		4	GND	V plot=0 grid=0
		5	V_A:p	A plot=0 grid=0
		6	V_GND:p	A plot=0 grid=0
		7	V_VDD:p	A plot=0 grid=0
		8	V_Y:p	A plot=0 grid=0
Values:
 0	0	0	0
	5	0	0
	0	0	0
 1	1e-11	0	0
	5	0	0
	0	0	0
 2	3e-11	0	0
	5	0	0
	0	0	0
 3	7e-11	0	0
	5	0	0
	0	0	0
 4	1e-10	0	0
	5	0	0
	0	0	0
 5	1.008335e-10	0.0416750000000001	0.000792569595072751
	5	0	-0.000380357334168876
	0	0	0.000380357334168878
 6	1.025005e-10	0.125025	0.00239022316121521
	5	0	-0.000386363033509143
	0	0	0.000386363033509145
 7	1.058345e-10	0.291725000000001	0.00565321332098688
	5	0	-0.000396598012634872
	0	0	0.00039659801263487
 8	1.125025e-10	0.625125000000002	0.0126542136264757
	5	0	-0.000443354033632842
	0	0	0.000443354033632843
 9	1.258385e-10	1.291925	0.0287272209521257
	5	0	-0.000520833568427131
	0	0	0.00052083356842713
 10	1.3001500001e-10	1.5007500005	0.0340909818045329
	5	0	-0.000506583807824284
	0	0	0.000506583807824287
 11	1.3836800003e-10	1.91840000149999	0.0448889239739732
	5	0	-0.000527578016134645
	0	0	0.000527578016134641
 12	1.52463221802291e-10	2.62316109011456	0.0637318120019255
	5	0	-0.000541884434858937
	0	0	0.000541884434858941
 13	1.71143181511292e-10	3.55715907556461	0.0898638999857528
	5	0	-0.000577265216189698
	0	0	0.000577265216189694
 14	1.88860453008152e-10	4.44302265040758	0.11635817553802
	5	0	-0.000619048812707195
	0	0	0.000619048812707197
 15	2e-10	5	0.133801355592718
	5	0	-0.000633654197276594
	0	0	0.000633654197276592
 16	2.008335e-10	5	0.134033457999068
	5	0	-0.000111386877806582
	0	0	0.000111386877806565
 17	2.025005e-10	5	0.134491960042475
	5	0	-0.000108650095902718
	0	0	0.000108650095902733
 18	2.058345e-10	5	0.135373163092658
	5	0	-0.000102796347122492
	0	0	0.000102796347122476
 19	2.125025e-10	5	0.136990636311656
	5	0	-9.12616278347062e-05
	0	0	9.12616278347193e-05
 20	2.258385e-10	5	0.139673436817552
	5	0	-6.96742156270509e-05
	0	0	6.96742156270408e-05
 21	2.43455438884516e-10	5	0.142249229283441
	5	0	-4.72946852237642e-05
	0	0	4.72946852237725e-05
 22	2.62646885798283e-10	5	0.144115655627579
	5	0	-3.05077382993569e-05
	0	0	3.05077382993492e-05
 23	2.83777294815123e-10	5	0.145425362255767
	5	0	-1.90779231913069e-05
	0	0	1.90779231913125e-05
 24	3.0863568488402e-10	5	0.146381852021692
	5	0	-1.17041112796884e-05
	0	0	1.17041112796814e-05
 25	3.40690826809385e-10	5	0.147138411765715
	5	0	-7.17734636716067e-06
	0	0	7.17734636716793e-06
 26	3.88074691117962e-10	5	0.147816031447961
	5	0	-4.26316756480629e-06
	0	0	4.26316756479923e-06
 27	4.45513728637358e-10	5	0.148342840347728
	5	0	-3.07412698303373e-06
	0	0	3.07412698303998e-06
 28	5.21201723064231e-10	5	0.148826521665797
	5	0	-2.03824360991681e-06
	0	0	2.03824360991112e-06
 29	6.28558558418373e-10	5	0.149309811367007
	5	0	-1.5631273852311e-06
	0	0	1.56312738523681e-06
 30	8.02576352275488e-10	5	0.149839627925432
	5	0	-8.72562031363359e-07
	0	0	8.72562031357697e-07
 31	1.07563384409362e-09	5	0.150377842315116
	5	0	-7.0429121978662e-07
	0	0	7.04291219792423e-07
 32	1.4779207261188e-09	5	0.150890509370474
	5	0	-3.15214470824816e-07
	0	0	3.15214470818905e-07
 33	2.0675769898411e-09	5	0.151387874524802
	5	0	-3.59572394306744e-07
	0	0	3.59572394312637e-07
 34	2.96587088694214e-09	5	0.151891384267468
	5	0	-8.88421700876313e-08
	0	0	8.88421700817857e-08
 35	4.35379299119182e-09	5	0.152402514575486
	5	0	-2.05774269479288e-07
	0	0	2.05774269485124e-07
 36	5.95379299119182e-09	5	0.15280728309874
	5	0	3.38970264205898e-09
	0	0	-3.38970264788551e-09
 37	7.55379299119182e-09	5	0.153109052945686
	5	0	-1.54274932031087e-07
	0	0	1.5427493203689e-07
 38	9.15379299119182e-09	5	0.153349067295581
	5	0	3.42674506253382e-08
	0	0	-3.42674506311252e-08
 39	1.07537929911918e-08	5	0.153548316338135
	5	0	-1.33892278799692e-07
	0	0	1.33892278805467e-07
 40	1.23537929911918e-08	5	0.153718754125958
	5	0	4.86730776211448e-08
	0	0	-4.86730776269302e-08
 41	1.39537929911918e-08	5	0.153867755764398
	5	0	-1.23174204427496e-07
	0	0	1.23174204433253e-07
 42	1.55537929911918e-08	5	0.154000221347184
	5	0	5.69411051662153e-08
	0	0	-5.69411051719971e-08
 43	1.71537929911918e-08	5	0.154119537192204
	5	0	-1.16599335795716e-07
	0	0	1.16599335801488e-07
 44	1.87537929911918e-08	5	0.154228173875172
	5	0	6.22806859637483e-08
	0	0	-6.22806859695488e-08
 45	2.03537929911918e-08	5	0.154327955434646
	5	0	-1.12171774256855e-07
	0	0	1.12171774262634e-07
 46	2.19537929911918e-08	5	0.154420297813801
	5	0	6.60002759309475e-08
	0	0	-6.60002759367478e-08
 47	2.35537929911918e-08	5	0.154506290838126
	5	0	-1.08997097019858e-07
	0	0	1.08997097025677e-07
 48	2.51537929911918e-08	5	0.154586819839039
	5	0	6.87322874703803e-08
	0	0	-6.87322874762044e-08
 49	2.67537929911918e-08	5	0.154662585218937
	5	0	-1.06615286668861e-07
	0	0	1.0661528667471e-07
 50	2.83537929911918e-08	5	0.15473417662588
	5	0	7.08192738003105e-08
	0	0	-7.08192738061636e-08
 51	2.99537929911918e-08	5	0.154802069282249
	5	0	-1.04765911521037e-07
	0	0	1.04765911526879e-07
 52	3.15537929911918e-08	5	0.154866675192404
	5	0	7.24626467751905e-08
	0	0	-7.24626467810605e-08
 53	3.31537929911918e-08	5	0.15492833063475
	5	0	-1.03290677743394e-07
	0	0	1.03290677749273e-07
 54	3.47537929911918e-08	5	0.154987334529428
	5	0	7.3788420488763e-08
	0	0	-7.37884204946448e-08
 55	3.63537929911918e-08	5	0.155043932963019
	5	0	-1.02087947315724e-07
	0	0	1.02087947321619e-07
 56	3.79537929911918e-08	5	0.155098349483511
	5	0	7.48793769274229e-08
	0	0	-7.48793769333317e-08
 57	3.95537929911918e-08	5	0.155150769197951
	5	0	-1.01089544396506e-07
	0	0	1.0108954440242e-07
 58	4.11537929911918e-08	5	0.15520136350352
	5	0	7.57920812597743e-08
	0	0	-7.57920812656949e-08
 59	4.27537929911918e-08	5	0.15525027487491
	5	0	-1.00248077406152e-07
	0	0	1.00248077412078e-07
 60	4.43537929911918e-08	5	0.155297637488539
	5	0	7.65664600435469e-08
	0	0	-7.65664600494608e-08
 61	4.59537929911918e-08	5	0.155343563166578
	5	0	-9.95296097039411e-08
	0	0	9.952960970985e-08
 62	4.75537929911918e-08	5	0.155388158816854
	5	0	7.72314738338992e-08
	0	0	-7.72314738398369e-08
 63	4.91537929911918e-08	5	0.155431513690997
	5	0	-9.8909221724758e-08
	0	0	9.89092217307227e-08
 64	5.07537929911918e-08	5	0.155473714268678
	5	0	7.78086219790086e-08
	0	0	-7.78086219849614e-08
 65	5.23537929911918e-08	5	0.155514832837336
	5	0	-9.83682172966253e-08
	0	0	9.8368217302575e-08
 66	5.39537929911918e-08	5	0.155554940275602
	5	0	7.83141870938688e-08
	0	0	-7.83141870998266e-08
 67	5.55537929911918e-08	5	0.155594095890399
	5	0	-9.78923056412287e-08
	0	0	9.7892305647202e-08
 68	5.71537929911918e-08	5	0.155632358444502
	5	0	7.87607173632505e-08
	0	0	-7.87607173692527e-08
 69	5.87537929911918e-08	5	0.155669777154967
	5	0	-9.74703838981004e-08
	0	0	9.74703839040871e-08
 70	6.03537929911918e-08	5	0.155706401235979
	5	0	7.91580320157507e-08
	0	0	-7.91580320217493e-08
 71	6.19537929911918e-08	5	0.155742271951345
	5	0	-9.70937011472028e-08
	0	0	9.70937011531862e-08
 72	6.35537929911918e-08	5	0.155777430891533
	5	0	7.95139195334737e-08
	0	0	-7.9513919539452e-08
 73	6.51537929911918e-08	5	0.155811912972479
	5	0	-9.67552715960681e-08
	0	0	9.67552716020448e-08
 74	6.67537929911918e-08	5	0.155845753627054
	5	0	7.98346326511884e-08
	0	0	-7.9834632657155e-08
 75	6.83537929911918e-08	5	0.155878982647362
	5	0	-9.64494545301656e-08
	0	0	9.6449454536144e-08
 76	6.99537929911918e-08	5	0.155911630441186
	5	0	8.0125245827786e-08
	0	0	-8.01252458337999e-08
 77	7.15537929911918e-08	5	0.155943722622483
	5	0	-9.61716483319339e-08
	0	0	9.61716483379495e-08
 78	7.31537929911918e-08	5	0.155975285459891
	5	0	8.03899177093052e-08
	0	0	-8.03899177153141e-08
 79	7.47537929911918e-08	5	0.15600634112863
	5	0	-9.59180640607409e-08
	0	0	9.59180640667701e-08
 80	7.63537929911919e-08	5	0.156036912459201
	5	0	8.06320867320787e-08
	0	0	-8.0632086738086e-08
 81	7.79537929911919e-08	5	0.156067018772545
	5	0	-9.56855555080564e-08
	0	0	9.56855555140891e-08
 82	7.89768964955959e-08	5	0.156086035068803
	5	0	8.08157438949227e-08
	0	0	-8.08157439009333e-08
 83	8e-08	5	0.156104873552925
	5	0	-9.55465180891975e-08
	0	0	9.5546518095232e-08
Plotname: Measurement Results for transient2 Analysis tran
Flags: real
No. Variables:        4
No. Points:        1
Variables:	0	dummy	dummy
		1	delay_d0000	 plot=0 grid=0
		2	slew_d0000	 plot=0 grid=0
		3	temper	C plot=0 grid=0
Values:
 0	0	nan	nan
	25
Plotname: Transient Analysis `transient3': time = (0 s -> 80 ns)
Flags: real
No. Variables:        9
No. Points:       84
Variables:	0	time	s
		1	A	V plot=0 grid=0
		2	Y	V plot=0 grid=0
		3	VDD	V plot=0 grid=0
		4	GND	V plot=0 grid=0
		5	V_A:p	A plot=0 grid=0
		6	V_GND:p	A plot=0 grid=0
		7	V_VDD:p	A plot=0 grid=0
		8	V_Y:p	A plot=0 grid=0
Values:
 0	0	0	0
	5	0	0
	0	0	0
 1	1e-11	0	0
	5	0	0
	0	0	0
 2	3e-11	0	0
	5	0	0
	0	0	0
 3	7e-11	0	0
	5	0	0
	0	0	0
 4	1e-10	0	0
	5	0	0
	0	0	0
 5	1.008335e-10	0.0416750000000001	0.000400107197606473
	5	0	-0.000384026104481715
	0	0	0.000384026104481717
 6	1.025005e-10	0.125025	0.00120675479840297
	5	0	-0.000390200746914253
	0	0	0.000390200746914249
 7	1.058345e-10	0.291725000000001	0.00285506225443833
	5	0	-0.000400828626112172
	0	0	0.000400828626112178
 8	1.125025e-10	0.625125000000002	0.00639835708251636
	5	0	-0.000449392088492886
	0	0	0.00044939208849288
 9	1.258385e-10	1.291925	0.0145504473970555
	5	0	-0.000528663138227423
	0	0	0.00052866313822743
 10	1.3001500001e-10	1.5007500005	0.0172672872519812
	5	0	-0.000512147051550109
	0	0	0.000512147051550102
 11	1.3836800003e-10	1.91840000149999	0.0227427842529495
	5	0	-0.000536673154472559
	0	0	0.000536673154472565
 12	1.5234969999024e-10	2.61748499951201	0.0322260087790041
	5	0	-0.000548542469207225
	0	0	0.000548542469207219
 13	1.70674985036784e-10	3.53374925183921	0.0452376030756632
	5	0	-0.00058751357702603
	0	0	0.000587513577026035
 14	1.88279019713027e-10	4.41395098565135	0.0586044630605341
	5	0	-0.000627377007487751
	0	0	0.000627377007487745
 15	2e-10	5	0.0679348799099142
	5	0	-0.000646293504276809
	0	0	0.000646293504276815
 16	2.008335e-10	5	0.0680556087059262
	5	0	-0.000115876468945855
	0	0	0.000115876468945845
 17	2.025005e-10	5	0.0682940856612927
	5	0	-0.000113015629922574
	0	0	0.000113015629922596
 18	2.058345e-10	5	0.0687523201677954
	5	0	-0.000106892951619475
	0	0	0.000106892951619449
 19	2.125025e-10	5	0.0695930180287574
	5	0	-9.48341897215027e-05
	0	0	9.48341897215285e-05
 20	2.258385e-10	5	0.0709860811791329
	5	0	-7.22999616338961e-05
	0	0	7.22999616338708e-05
 21	2.43270869324388e-10	5	0.0723100650940025
	5	0	-4.92196222430759e-05
	0	0	4.92196222431016e-05
 22	2.62267136018869e-10	5	0.0732726984014987
	5	0	-3.18601667244582e-05
	0	0	3.18601667244331e-05
 23	2.83154545612455e-10	5	0.0739494606964115
	5	0	-1.99806165992978e-05
	0	0	1.99806165993225e-05
 24	3.07760623981122e-10	5	0.0744451516084131
	5	0	-1.22514786972785e-05
	0	0	1.22514786972548e-05
 25	3.39427843591376e-10	5	0.0748360128307692
	5	0	-7.49695416780643e-06
	0	0	7.49695416783027e-06
 26	3.85928392180557e-10	5	0.0751833485064658
	5	0	-4.45424006433716e-06
	0	0	4.45424006431328e-06
 27	4.42236298254512e-10	5	0.0754527801355798
	5	0	-3.20171173927338e-06
	0	0	3.20171173929718e-06
 28	5.16218938851903e-10	5	0.0756993052681885
	5	0	-2.12981225299684e-06
	0	0	2.12981225297358e-06
 29	6.20849688651927e-10	5	0.0759450769211428
	5	0	-1.62849647885458e-06
	0	0	1.62849647887786e-06
 30	7.89625042166187e-10	5	0.0762137382611635
	5	0	-9.18428535747727e-07
	0	0	9.18428535724624e-07
 31	1.05444630230636e-09	5	0.0764872661459411
	5	0	-7.34175397376595e-07
	0	0	7.34175397399745e-07
 32	1.4445751327285e-09	5	0.076748042230863
	5	0	-3.35322068896237e-07
	0	0	3.35322068873094e-07
 33	2.01567395878296e-09	5	0.0770008007699572
	5	0	-3.72810625318226e-07
	0	0	3.7281062534135e-07
 34	2.88357179659133e-09	5	0.0772563809792937
	5	0	-9.83605782538934e-08
	0	0	9.83605782307649e-08
 35	4.22215920628995e-09	5	0.0775159940262105
	5	0	-2.119524272574e-07
	0	0	2.11952427280535e-07
 36	5.82215920628995e-09	5	0.0777284751769125
	5	0	-5.28878689176471e-10
	0	0	5.28878666038707e-10
 37	7.42215920628995e-09	5	0.077886025697721
	5	0	-1.57021797733737e-07
	0	0	1.57021797756878e-07
 38	9.02215920628995e-09	5	0.0780110382206358
	5	0	3.20091189218234e-08
	0	0	-3.20091189449624e-08
 39	1.062215920629e-08	5	0.078114732735377
	5	0	-1.3570378978883e-07
	0	0	1.35703789811962e-07
 40	1.222215920629e-08	5	0.0782034459051185
	5	0	4.69904637291261e-08
	0	0	-4.69904637522552e-08
 41	1.382215920629e-08	5	0.0782810615337657
	5	0	-1.24606248860802e-07
	0	0	1.24606248883943e-07
 42	1.542215920629e-08	5	0.0783501464798975
	5	0	5.55211460977823e-08
	0	0	-5.55211461208995e-08
 43	1.702215920629e-08	5	0.0784124673188122
	5	0	-1.1784214177502e-07
	0	0	1.17842141798133e-07
 44	1.862215920629e-08	5	0.0784693084718852
	5	0	6.10008318201938e-08
	0	0	-6.10008318433161e-08
 45	2.022215920629e-08	5	0.078521615423042
	5	0	-1.1330793996797e-07
	0	0	1.13307939991063e-07
 46	2.182215920629e-08	5	0.0785701202961262
	5	0	6.48029097920789e-08
	0	0	-6.48029098151555e-08
 47	2.342215920629e-08	5	0.0786153852056399
	5	0	-1.10067976491352e-07
	0	0	1.10067976514417e-07
 48	2.502215920629e-08	5	0.0786578659294926
	5	0	6.75870953654028e-08
	0	0	-6.75870953884607e-08
 49	2.662215920629e-08	5	0.0786979222148428
	5	0	-1.07643538071376e-07
	0	0	1.0764353809442e-07
 50	2.822215920629e-08	5	0.0787358564905221
	5	0	6.9709104958347e-08
	0	0	-6.97091049813642e-08
 51	2.982215920629e-08	5	0.0787719119302542
	5	0	-1.05764702198176e-07
	0	0	1.05764702221199e-07
 52	3.142215920629e-08	5	0.0788062991465325
	5	0	7.13773283416611e-08
	0	0	-7.13773283646799e-08
 53	3.302215920629e-08	5	0.0788391896142082
	5	0	-1.04267953662839e-07
	0	0	1.04267953685875e-07
 54	3.462215920629e-08	5	0.0788707356689871
	5	0	7.27217411739651e-08
	0	0	-7.27217411970009e-08
 55	3.622215920629e-08	5	0.0789010623777836
	5	0	-1.03048607742244e-07
	0	0	1.03048607765289e-07
 56	3.782215920629e-08	5	0.0789302833365027
	5	0	7.38274911918024e-08
	0	0	-7.38274912148537e-08
 57	3.942215920629e-08	5	0.0789584923190463
	5	0	-1.02036631624175e-07
	0	0	1.02036631647219e-07
 58	4.102215920629e-08	5	0.0789857761826336
	5	0	7.47526100926435e-08
	0	0	-7.47526101156607e-08
 59	4.262215920629e-08	5	0.079012206879666
	5	0	-1.0118346512313e-07
	0	0	1.01183465146137e-07
 60	4.422215920629e-08	5	0.0790378522283839
	5	0	7.55379583551709e-08
	0	0	-7.55379583781829e-08
 61	4.582215920629e-08	5	0.0790627685313758
	5	0	-1.00454419447653e-07
	0	0	1.00454419470667e-07
 62	4.742215920629e-08	5	0.0790870096905416
	5	0	7.62131021320016e-08
	0	0	-7.62131021550051e-08
 63	4.902215920629e-08	5	0.0791106205142563
	5	0	-9.98240840442978e-08
	0	0	9.98240840672981e-08
 64	5.062215920629e-08	5	0.0791336445027018
	5	0	7.67999373545138e-08
	0	0	-7.67999373775058e-08
 65	5.222215920629e-08	5	0.0791561178473942
	5	0	-9.92734403366908e-08
	0	0	9.92734403596708e-08
 66	5.382215920629e-08	5	0.0791780761227214
	5	0	7.73150066753348e-08
	0	0	-7.73150066983301e-08
 67	5.542215920629e-08	5	0.0791995489441807
	5	0	-9.87879865123329e-08
	0	0	9.87879865353215e-08
 68	5.702215920629e-08	5	0.0792205657450038
	5	0	7.77710272691516e-08
	0	0	-7.77710272921451e-08
 69	5.862215920629e-08	5	0.0792411510428667
	5	0	-9.83564835938408e-08
	0	0	9.83564836168122e-08
 70	6.022215920629e-08	5	0.0792613294422741
	5	0	7.81779256838911e-08
	0	0	-7.81779257069033e-08
 71	6.182215920629e-08	5	0.0792811214536748
	5	0	-9.79700956269833e-08
	0	0	9.7970095650004e-08
 72	6.342215920629e-08	5	0.0793005478352427
	5	0	7.85435554774475e-08
	0	0	-7.85435555004513e-08
 73	6.502215920629e-08	5	0.0793196259080816
	5	0	-9.76217869365766e-08
	0	0	9.76217869596006e-08
 74	6.662215920629e-08	5	0.0793383733310344
	5	0	7.88742053258619e-08
	0	0	-7.88742053488572e-08
 75	6.822215920629e-08	5	0.0793568048582404
	5	0	-9.73058912271003e-08
	0	0	9.73058912500634e-08
 76	6.982215920629e-08	5	0.0793749356252417
	5	0	7.91749654940651e-08
	0	0	-7.91749655170231e-08
 77	7.142215920629e-08	5	0.079392778299076
	5	0	-9.70177980961002e-08
	0	0	9.70177981190665e-08
 78	7.302215920629e-08	5	0.0794103459418043
	5	0	7.94499965646727e-08
	0	0	-7.94499965876696e-08
 79	7.462215920629e-08	5	0.079427649507756
	5	0	-9.67537213543205e-08
	0	0	9.67537213773175e-08
 80	7.622215920629e-08	5	0.0794447003407826
	5	0	7.970272945531e-08
	0	0	-7.97027294783052e-08
 81	7.782215920629e-08	5	0.0794615079777772
	5	0	-9.65105253561586e-08
	0	0	9.65105253791472e-08
 82	7.8911079603145e-08	5	0.0794728126675225
	5	0	7.98998743741922e-08
	0	0	-7.98998743971807e-08
 83	8e-08	5	0.0794840118085783
	5	0	-9.63554379142415e-08
	0	0	9.63554379372571e-08
Plotname: Measurement Results for transient3 Analysis tran
Flags: real
No. Variables:        4
No. Points:        1
Variables:	0	dummy	dummy
		1	delay_d0000	 plot=0 grid=0
		2	slew_d0000	 plot=0 grid=0
		3	temper	C plot=0 grid=0
Values:
 0	0	nan	nan
	25
Plotname: Transient Analysis `transient4': time = (0 s -> 80 ns)
Flags: real
No. Variables:        9
No. Points:       84
Variables:	0	time	s
		1	A	V plot=0 grid=0
		2	Y	V plot=0 grid=0
		3	VDD	V plot=0 grid=0
		4	GND	V plot=0 grid=0
		5	V_A:p	A plot=0 grid=0
		6	V_GND:p	A plot=0 grid=0
		7	V_VDD:p	A plot=0 grid=0
		8	V_Y:p	A plot=0 grid=0
Values:
 0	0	0	0
	5	0	0
	0	0	0
 1	1e-11	0	0
	5	0	0
	0	0	0
 2	3e-11	0	0
	5	0	0
	0	0	0
 3	7e-11	0	0
	5	0	0
	0	0	0
 4	1e-10	0	0
	5	0	0
	0	0	0
 5	1.008335e-10	0.0416750000000001	0.00013423223177939
	5	0	-0.000386511525219729
	0	0	0.000386511525219731
 6	1.025005e-10	0.125025	0.000404881645608772
	5	0	-0.000392802923719641
	0	0	0.000392802923719639
 7	1.058345e-10	0.291725000000001	0.000958121520066246
	5	0	-0.000403703194276884
	0	0	0.000403703194276886
 8	1.125025e-10	0.625125000000002	0.00214894618339922
	5	0	-0.000453519118863332
	0	0	0.00045351911886333
 9	1.258385e-10	1.291925	0.00489258091566279
	5	0	-0.000533991882558308
	0	0	0.00053399188255831
 10	1.3001500001e-10	1.5007500005	0.0058061328582823
	5	0	-0.000515942108611118
	0	0	0.000515942108611117
 11	1.3836800003e-10	1.91840000149999	0.00764881638000491
	5	0	-0.000542944624682713
	0	0	0.000542944624682714
 12	1.52263914908442e-10	2.61319574542212	0.0108215748374685
	5	0	-0.000553006288179277
	0	0	0.000553006288179276
 13	1.70363538011389e-10	3.51817690056944	0.0151489806807835
	5	0	-0.000594616948516794
	0	0	0.000594616948516796
 14	1.87891153934913e-10	4.39455769674566	0.0196316474807841
	5	0	-0.00063297730814043
	0	0	0.000632977308140428
 15	2e-10	5	0.0228809266713311
	5	0	-0.000655051297666176
	0	0	0.000655051297666177
 16	2.008335e-10	5	0.0229222494493736
	5	0	-0.000118985803624472
	0	0	0.000118985803624488
 17	2.025005e-10	5	0.0230038716388793
	5	0	-0.000116039097217682
	0	0	0.000116039097217658
 18	2.058345e-10	5	0.0231606870129042
	5	0	-0.000109729887627467
	0	0	0.000109729887627493
 19	2.125025e-10	5	0.0234482967595176
	5	0	-9.73077224588017e-05
	0	0	9.73077224587751e-05
 20	2.258385e-10	5	0.0239245712386747
	5	0	-7.41168051795807e-05
	0	0	7.41168051796059e-05
 21	2.43149228927259e-10	5	0.0243741854456405
	5	0	-5.05543281586362e-05
	0	0	5.05543281586106e-05
 22	2.62016307863109e-10	5	0.0247018278554176
	5	0	-3.28016366520049e-05
	0	0	3.28016366520335e-05
 23	2.82742671394034e-10	5	0.0249324699647387
	5	0	-2.06125632928221e-05
	0	0	2.06125632927925e-05
 24	3.07181553861692e-10	5	0.025101751792624
	5	0	-1.26357972305049e-05
	0	0	1.26357972305342e-05
 25	3.38593741443742e-10	5	0.0252349726676828
	5	0	-7.72127596579592e-06
	0	0	7.72127596576707e-06
 26	3.84516715444326e-10	5	0.0253527389437533
	5	0	-4.58799057809415e-06
	0	0	4.58799057812295e-06
 27	4.40082882906925e-10	5	0.0254439466067448
	5	0	-3.29084658440345e-06
	0	0	3.29084658437553e-06
 28	5.12947149095382e-10	5	0.0255272024235551
	5	0	-2.19370634267653e-06
	0	0	2.1937063427041e-06
 29	6.1579009229552e-10	5	0.0256100745286365
	5	0	-1.67419258428873e-06
	0	0	1.67419258426117e-06
 30	7.81137810452156e-10	5	0.0257004893241503
	5	0	-9.50524779750502e-07
	0	0	9.50524779777947e-07
 31	1.04055092519688e-09	5	0.0257926741286993
	5	0	-7.55198832676013e-07
	0	0	7.55198832648541e-07
 32	1.4227096500014e-09	5	0.0258806218504848
	5	0	-3.49444491989726e-07
	0	0	3.4944449201729e-07
 33	1.98165882796163e-09	5	0.0259658179160971
	5	0	-3.8218042140738e-07
	0	0	3.82180421379841e-07
 34	2.82970005946556e-09	5	0.0260519039256535
	5	0	-1.05075238616609e-07
	0	0	1.05075238644159e-07
 35	4.13607726671302e-09	5	0.0261393968836286
	5	0	-2.16398730871084e-07
	0	0	2.16398730843506e-07
 36	5.73607726671302e-09	5	0.0262126271222878
	5	0	-3.29203745843631e-09
	0	0	3.29203748599262e-09
 37	7.33607726671302e-09	5	0.0262667471672551
	5	0	-1.59068149922816e-07
	0	0	1.5906814989525e-07
 38	8.93607726671302e-09	5	0.0263096420651158
	5	0	3.038340376437e-08
	0	0	-3.03834037368044e-08
 39	1.0536077266713e-08	5	0.0263452203885346
	5	0	-1.37118426675724e-07
	0	0	1.37118426648178e-07
 40	1.2136077266713e-08	5	0.026375677335358
	5	0	4.57475334848118e-08
	0	0	-4.57475334572882e-08
 41	1.3736077266713e-08	5	0.0264023522448135
	5	0	-1.25772314629595e-07
	0	0	1.25772314602036e-07
 42	1.5336077266713e-08	5	0.0264261271111483
	5	0	5.44476627968242e-08
	0	0	-5.44476627692567e-08
 43	1.6936077266713e-08	5	0.0264476071086051
	5	0	-1.18887708041052e-07
	0	0	1.18887708013481e-07
 44	1.8536077266713e-08	5	0.0264672312055219
	5	0	6.00153643757736e-08
	0	0	-6.00153643481943e-08
 45	2.0136077266713e-08	5	0.0264853217724929