HEADER
"PSFversion" "1.00"
"V0n" "NCSU_Analog_Parts_vdc_spectre"
"V3n V2n V1n" "NCSU_Analog_Parts_vpulse_spectre"
"C1n C0n" "NCSU_Analog_Parts_cap_spectre"
"I0n" "YSDFlipFlopAsyncReset"
