HEADER
"PSFversion" "1.00"
"+15n +14n +13n +12n +11n" "NCSU_Analog_Parts_pmos4_spectre"
"+54n +53n +52n +51n +50n +49n +48n +47n +46n +45n +44n +43n +42n +41n +40n +39n +38n +37n +36n +35n +34n +33n +32n +31n +30n +29n +28n +27n +26n +25n +24n +23n +22n +21n +20n +19n +18n +17n +16n" "NCSU_Analog_Parts_pcapacitor_spectre"
"+8n +7n +0n +6n +5n +4n +3n +2n +1n" "NCSU_Analog_Parts_nmos4_spectre"
"+10n +9n" "NCSU_Analog_Parts_pmos4_spectre"
"CLKv" ":1v"
"CLRv" ":2v"
"Dv" ":3v"
"Qv" ":4v"
"QBarv" ":5v"
