HEADER
"PSFversion" "1.00"
"I0n" "NAND2X1"
"I1n" "NOR2X1"
"I2n" "TIELO"
"I3n" "TIEHI"
