HEADER
"PSFversion" "1.00"
"I7n" "TIEHI"
"I6n" "NOR2X1"
"I8n" "TIELO"
"I5n" "NAND2X1"
