HEADER
"PSFversion" "1.00"
"I12n" "TIELO"
"I6n" "NOR2X1"
"I11n" "TIEHI"
"I5n" "NAND2X1"
"I19n" "BUFX4"
"I14n" "AOI22X1"
"I15n" "MUX2X1"
"I16n" "XOR2X1"
"I20n" "BUFX8"
"I28n" "INVX1"
"I21n" "INVX2"
"I22n" "INVX4"
"I23n" "INVX8"
"I24n" "NAND2X2"
"I25n" "OAI22X1"
"I29n" "DFF2"
