HEADER
"PSFversion" "1.00"
"+3n" "NCSU_Analog_Parts_pmos4_spectre"
"+13n +12n +11n +10n +9n +8n +7n +6n +5n +4n" "NCSU_Analog_Parts_pcapacitor_spectre"
"+1n +0n" "NCSU_Analog_Parts_nmos4_spectre"
"+2n" "NCSU_Analog_Parts_pmos4_spectre"
"Av" ":1v"
"Yv" ":2v"
