HEADER
"PSFversion" "1.00"
"+25n +24n +23n +22n +21n +20n +19n +18n +17n +16n +15n +14n +13n" "NCSU_Analog_Parts_pmos4_spectre"
"+12n +11n +10n +9n +8n +7n +6n +5n +4n +3n +2n +1n +0n" "NCSU_Analog_Parts_nmos4_spectre"
"CLKv" ":1v"
"CLRbv" ":2v"
"Dv" ":3v"
"Qv" ":4v"
"Qbv" ":5v"
