HEADER
"PSFversion" "1.00"
"+25n +24n +23n +22n +21n +20n +19n +18n +17n +16n +15n +14n +13n" "NCSU_Analog_Parts_pmos4_spectre"
"+103n +102n +101n +100n +99n +98n +97n +96n +95n +94n +93n +92n +91n +90n +89n +88n +87n +86n +85n +84n +83n +82n +81n +80n +79n +78n +77n +76n +75n +74n +73n +72n +71n +70n +69n +68n +67n +66n +65n +64n +63n +62n +61n +60n +59n +58n +57n +56n +55n +54n +53n +52n +51n +50n +49n +48n +47n +46n +45n +44n +43n +42n +41n +40n +39n +38n +37n +36n +35n +34n +33n +32n +31n +30n +29n +28n +27n +26n" "NCSU_Analog_Parts_pcapacitor_spectre"
"+12n +11n +10n +9n +8n +7n +6n +5n +4n +3n +2n +1n +0n" "NCSU_Analog_Parts_nmos4_spectre"
"CLKv" ":1v"
"CLRBv" ":2v"
"Dv" ":3v"
"Qv" ":4v"
"QBv" ":5v"
