HEADER
"PSFversion" "1.00"
"+1n" "NCSU_Analog_Parts_pmos4_spectre"
"+0n" "NCSU_Analog_Parts_nmos4_spectre"
"Av" ":1v"
"Ov" ":2v"
