HEADER
"PSFversion" "1.00"
"+3n +2n" "NCSU_Analog_Parts_pmos4_spectre"
"+10n +9n +8n +7n +6n +5n +4n" "NCSU_Analog_Parts_pcapacitor_spectre"
"+1n +0n" "NCSU_Analog_Parts_nmos4_spectre"
"Av" ":1v"
"Bv" ":2v"
"Yv" ":3v"
