HEADER
"PSFversion" "1.00"
"M2n M1n M0n" "NCSU_Analog_Parts_pmos_spectre"
"M3n M4n M5n" "NCSU_Analog_Parts_nmos_spectre"
"Av" ":1v"
"Bv" ":2v"
"Ev" ":3v"
"Fv" ":4v"
"NEv" ":5v"
"[@inh_bn:%:gnd!]v" ":6v"
