HEADER
"PSFversion" "1.00"
"design" "(\"Lib6710_08\" \"testbuff\" \"schematic\" \"\")"
"simulator" "spectre"
"temperature" "27"
"host" ""
"date" "Nov 13 18:10:43 2014"
"title" ""
"analysisList" "()"
END
