HEADER
"PSFversion" "1.00"
"Time Stamp" "Nov 13 18:10:43 2014"
TYPE
"variable" STRUCT(
"value" FLOAT DOUBLE
) PROP( "key" "element" )
VALUE
"temp" "variable" ( 27 ) PROP( )
END
