HEADER
"PSFversion" "1.00"
"M2n" "NCSU_Analog_Parts_nmos_spectre"
"M5n M4n" "NCSU_Analog_Parts_pmos_spectre"
"N1n N0n" "NCSU_Analog_Parts_nmos4_spectre"
"P0n" "NCSU_Analog_Parts_pmos4_spectre"
"Av" ":1v"
"Bv" ":2v"
"Yv" ":3v"
"[@inh_bn:%:gnd!]v" ":4v"
