HEADER
"PSFversion" "1.00"
"M11n M10n M3n M2n M1n M0n" "NCSU_Analog_Parts_nmos_spectre"
"M9n M8n M7n M6n M5n M4n" "NCSU_Analog_Parts_pmos_spectre"
"Av" ":1v"
"Bv" ":2v"
"Yv" ":3v"
"[@inh_bn:%:gnd!]v" ":4v"
