HEADER
"PSFversion" "1.00"
"design" "(\"ExperimentalCells\" \"ADDER_TEST2\" \"schematic\" \"\")"
"simulator" "spectre"
"temperature" "27"
"host" ""
"date" "Nov 12 05:45:41 2014"
"title" ""
"analysisList" "()"
END
