HEADER
"PSFversion" "1.00"
"simulator" "spectre"
"version" "12.1.1.096.isr12"
"date" "5:45:43 AM, Wed Nov 12, 2014"
"design" "// Generated for: spectre"
"analysis type" "info.subckts"
"analysis name" "subckts"
"analysis description" "Circuit Information"
"xVecSorted" "unknown"
"tolerance.relative" 0.00100000
TYPE
"subckt" STRUCT(
"subckt_params" STRING *
"subckt_terminals" STRING *
) PROP(
"key" "sub"
)
VALUE
"ADDER" "subckt" (
""
"A B Cin Cout S inh_inh_bn vdd! 0"
)
END
