HEADER
"PSFversion" "1.00"
"simulator" "spectre"
"version" "12.1.1.096.isr12"
"date" "6:18:22 AM, Wed Nov 12, 2014"
"design" "// Generated for: spectre"
"analysis type" "info.subckts"
"analysis name" "subckts"
"analysis description" "Circuit Information"
"xVecSorted" "unknown"
"tolerance.relative" 0.00100000
TYPE
"subckt" STRUCT(
"subckt_params" STRING *
"subckt_terminals" STRING *
) PROP(
"key" "sub"
)
VALUE
"XOR2X1" "subckt" (
""
"A B Y inh_inh_bn 0 vdd!"
)
END
