HEADER
"PSFversion" "1.00"
"Time Stamp" "Nov 12 06:18:21 2014"
TYPE
"variable" STRUCT(
"value" FLOAT DOUBLE
) PROP( "key" "element" )
VALUE
"temp" "variable" ( 27 ) PROP( )
END
