Title: * * design : BUFX4 / process : typical / id : D0001 (2014/11/13 17:56:59) * *
Date: 5:57:00 PM, Thur Nov 13, 2014
Plotname: Transient Analysis `transient1': time = (0 s -> 80 ns)
Flags: real
No. Variables:        9
No. Points:       77
Variables:	0	time	s
		1	A	V plot=0 grid=0
		2	Y	V plot=0 grid=0
		3	VDD	V plot=0 grid=0
		4	GND	V plot=0 grid=0
		5	V_A:p	A plot=0 grid=0
		6	V_GND:p	A plot=0 grid=0
		7	V_VDD:p	A plot=0 grid=0
		8	V_Y:p	A plot=0 grid=0
Values:
 0	0	5	4.999999999995
	5	0	0
	0	0	4.999999999995e-12
 1	1e-11	5	4.99999999951911
	5	0	-2.41120958570294e-13
	0	0	2.41120958570295e-13
 2	3e-11	5	4.99999999856736
	5	0	-2.41215947760772e-13
	0	0	2.41215932444563e-13
 3	7e-11	5	4.99999999666384
	5	0	-2.41215961694896e-13
	0	0	2.41216046376936e-13
 4	1e-10	5	4.99999999523621
	5	0	-2.41216554152132e-13
	0	0	2.41216438558923e-13
 5	1.008335e-10	4.958325	4.99799331258248
	5	0	0.000240753762696
	0	0	-0.000240753762696
 6	1.025005e-10	4.874975	4.99400181796933
	5	0	0.000238129804174068
	0	0	-0.000238129804174068
 7	1.058345e-10	4.708275	4.98607223113883
	5	0	0.000237550259660986
	0	0	-0.000237550259660984
 8	1.125025e-10	4.374875	4.97025110384305
	5	0	0.000236988641473964
	0	0	-0.000236988641473966
 9	1.258385e-10	3.708075	4.93588935907275
	5	0	0.000278334455552934
	0	0	-0.000278334455552932
 10	1.3001500001e-10	3.4992499995	4.92299735637991
	5	0	0.000339024694744986
	0	0	-0.000339024694744987
 11	1.3836800003e-10	3.08159999850001	4.89705999010346
	5	0	0.000282006451052046
	0	0	-0.000282006451052044
 12	1.50676471868202e-10	2.46617640658991	4.85870350181268
	5	0	0.000341246999003989
	0	0	-0.000341246999003991
 13	1.75293415544606e-10	1.2353292227697	4.78135087836594
	5	0	0.000287203252798354
	0	0	-0.000287203252798352
 14	2e-10	0	4.70114791032397
	5	0	0.000362040409476113
	0	0	-0.000362040409476115
 15	2.008335e-10	0	4.70112057434753
	5	0	3.27965653871523e-06
	0	0	-3.27965653870781e-06
 16	2.025005e-10	0	4.70106586654927
	5	0	3.28395712684455e-06
	0	0	-3.28395712685464e-06
 17	2.058345e-10	0	4.70095904226766
	5	0	3.1242087321832e-06
	0	0	-3.12420873218146e-06
 18	2.125025e-10	0	4.7007553258154
	5	0	2.98605337951947e-06
	0	0	-2.98605337951979e-06
 19	2.258385e-10	0	4.70038388471395
	5	0	2.58443964073882e-06
	0	0	-2.58443964073741e-06
 20	2.52510499999999e-10	0	4.69976006901913
	5	0	2.09323313378023e-06
	0	0	-2.09323313378137e-06
 21	3.05854499999999e-10	0	4.6988480043902
	5	0	1.32631591441225e-06
	0	0	-1.32631591441147e-06
 22	4.12542499999997e-10	0	4.69776291781493
	5	0	7.07805191523964e-07
	0	0	-7.0780519152459e-07
 23	5.43072197378022e-10	0	4.69704023583875
	5	0	3.99492012387363e-07
	0	0	-3.9949201238675e-07
 24	7.10223200504344e-10	0	4.69641044681268
	5	0	3.5405557472901e-07
	0	0	-3.54055574729578e-07
 25	9.30204020649635e-10	0	4.69574131229998
	5	0	2.54292172849817e-07
	0	0	-2.54292172849218e-07
 26	1.2899353064598e-09	0	4.69487459836079
	5	0	2.27565860015559e-07
	0	0	-2.27565860016135e-07
 27	1.99896670902098e-09	0	4.69365139354147
	5	0	1.17460194147101e-07
	0	0	-1.17460194146511e-07
 28	3.29661649748513e-09	0	4.69223297331335
	5	0	1.01144138513157e-07
	0	0	-1.01144138513743e-07
 29	4.89661649748513e-09	0	4.6911133241653
	5	0	3.88026216466165e-08
	0	0	-3.8802621646029e-08
 30	6.49661649748513e-09	0	4.69030203095022
	5	0	6.25996488236608e-08
	0	0	-6.25996488242601e-08
 31	8.09661649748513e-09	0	4.68967164633661
	5	0	1.61890479035832e-08
	0	0	-1.61890479029947e-08
 32	9.69661649748513e-09	0	4.68915747736517
	5	0	4.80726946976261e-08
	0	0	-4.8072694698214e-08
 33	1.12966164974851e-08	0	4.68872381119863
	5	0	6.12619823787749e-09
	0	0	-6.1261982372761e-09
 34	1.28966164974851e-08	0	4.68834860022892
	5	0	4.07657959033177e-08
	0	0	-4.0765795903931e-08
 35	1.44966164974851e-08	0	4.68801822433218
	5	0	5.21814823199766e-10
	0	0	-5.21814822593317e-10
 36	1.60966164974851e-08	0	4.68772288447672
	5	0	3.63862913676535e-08
	0	0	-3.63862913682583e-08
 37	1.76966164974851e-08	0	4.68745602279806
	5	0	-3.03795671323841e-09
	0	0	3.03795671385338e-09
 38	1.92966164974851e-08	0	4.68721244346855
	5	0	3.34759982331048e-08
	0	0	-3.34759982337231e-08
 39	2.08966164974851e-08	0	4.68698850434827
	5	0	-5.49298239978761e-09
	0	0	5.49298240041357e-09
 40	2.24966164974851e-08	0	4.6867811268572
	5	0	3.1405795013824e-08
	0	0	-3.14057950144559e-08
 41	2.40966164974851e-08	0	4.68658808263713
	5	0	-7.28464087335711e-09
	0	0	7.28464087399148e-09
 42	2.56966164974851e-08	0	4.68640740324538
	5	0	2.98601918453991e-08
	0	0	-2.98601918460387e-08
 43	2.72966164974851e-08	0	4.68623762621599
	5	0	-8.64743581641509e-09
	0	0	8.64743581704105e-09
 44	2.88966164974851e-08	0	4.68607742092313
	5	0	2.86637251092731e-08
	0	0	-2.8663725109894e-08
 45	3.04966164974851e-08	0	4.68592577518347
	5	0	-9.71737965513314e-09
	0	0	9.71737965575145e-09
 46	3.20966164974851e-08	0	4.68578175034292
	5	0	2.77111130166358e-08
	0	0	-2.77111130172575e-08
 47	3.36966164974851e-08	0	4.68564461622738
	5	0	-1.05787200004095e-08
	0	0	1.05787200010287e-08
 48	3.52966164974851e-08	0	4.68551368783968
	5	0	2.69353973044693e-08
	0	0	-2.69353973050969e-08
 49	3.68966164974851e-08	0	4.68538842075705
	5	0	-1.12863828787311e-08
	0	0	1.12863828793656e-08
 50	3.84966164974851e-08	0	4.68526830099964
	5	0	2.62919818992976e-08
	0	0	-2.62919818999354e-08
 51	4.00966164974851e-08	0	4.68515291161892
	5	0	-1.18776797316946e-08
	0	0	1.18776797323197e-08
 52	4.16966164974851e-08	0	4.68504185785953
	5	0	2.57500294606652e-08
	0	0	-2.57500294612861e-08
 53	4.32966164974851e-08	0	4.68493481327136
	5	0	-1.23788259153468e-08
	0	0	1.23788259159762e-08
 54	4.48966164974851e-08	0	4.68483146857447
	5	0	2.52875432606614e-08
	0	0	-2.52875432612856e-08
 55	4.64966164974851e-08	0	4.68473156341385
	5	0	-1.28087677469526e-08
	0	0	1.28087677475769e-08
 56	4.80966164974851e-08	0	4.68463485126934
	5	0	2.48884164448629e-08
	0	0	-2.48884164454872e-08
 57	4.96966164974851e-08	0	4.68454112122682
	5	0	-1.31815303055154e-08
	0	0	1.31815303061244e-08
 58	5.12966164974852e-08	0	4.68445017381027
	5	0	2.45405883823544e-08
	0	0	-2.45405883829625e-08
 59	5.28966164974852e-08	0	4.68436183584966
	5	0	-1.35077121177457e-08
	0	0	1.35077121183564e-08
 60	5.44966164974852e-08	0	4.68427594377945
	5	0	2.42348522558466e-08
	0	0	-2.42348522564793e-08
 61	5.60966164974852e-08	0	4.68419235375257
	5	0	-1.37954673640327e-08
	0	0	1.37954673646663e-08
 62	5.76966164974852e-08	0	4.68411093006072
	5	0	2.39640605421769e-08
	0	0	-2.39640605428062e-08
 63	5.92966164974852e-08	0	4.68403155198541
	5	0	-1.40511692716376e-08
	0	0	1.40511692722737e-08
 64	6.08966164974852e-08	0	4.68395410574211
	5	0	2.37225816986624e-08
	0	0	-2.37225816992935e-08
 65	6.24966164974852e-08	0	4.68387848909837
	5	0	-1.42798690631492e-08
	0	0	1.42798690637828e-08
 66	6.40966164974852e-08	0	4.68380460574891
	5	0	2.35059200617497e-08
	0	0	-2.35059200623841e-08
 67	6.56966164974852e-08	0	4.68373236841025
	5	0	-1.44856202659022e-08
	0	0	1.4485620266534e-08
 68	6.72966164974852e-08	0	4.6836616948772
	5	0	2.33104445026108e-08
	0	0	-2.3310444503246e-08
 69	6.88966164974852e-08	0	4.68359251008109
	5	0	-1.46717122430225e-08
	0	0	1.46717122436392e-08
 70	7.04966164974852e-08	0	4.68352474331249
	5	0	2.31331912011882e-08
	0	0	-2.31331912018074e-08
 71	7.20966164974852e-08	0	4.68345832957679
	5	0	-1.48408412214208e-08
	0	0	1.48408412220408e-08
 72	7.36966164974852e-08	0	4.68339320762808
	5	0	2.29717179574857e-08
	0	0	-2.29717179581142e-08
 73	7.52966164974852e-08	0	4.68332932085039
	5	0	-1.49952374684423e-08
	0	0	1.49952374690734e-08
 74	7.68966164974852e-08	0	4.68326661585742
	5	0	2.28239949933746e-08
	0	0	-2.28239949940022e-08
 75	7.84966164974852e-08	0	4.68320504305511
	5	0	-1.51367611754329e-08
	0	0	1.5136761176069e-08
 76	8e-08	0	4.68314817861607
	5	0	2.26922562089622e-08
	0	0	-2.26922562095864e-08
Plotname: Measurement Results for transient1 Analysis tran
Flags: real
No. Variables:        4
No. Points:        1
Variables:	0	dummy	dummy
		1	delay_d0001	 plot=0 grid=0
		2	slew_d0001	 plot=0 grid=0
		3	temper	C plot=0 grid=0
Values:
 0	0	nan	nan
	25
Plotname: Transient Analysis `transient2': time = (0 s -> 80 ns)
Flags: real
No. Variables:        9
No. Points:       78
Variables:	0	time	s
		1	A	V plot=0 grid=0
		2	Y	V plot=0 grid=0
		3	VDD	V plot=0 grid=0
		4	GND	V plot=0 grid=0
		5	V_A:p	A plot=0 grid=0
		6	V_GND:p	A plot=0 grid=0
		7	V_VDD:p	A plot=0 grid=0
		8	V_Y:p	A plot=0 grid=0
Values:
 0	0	5	4.999999999995
	5	0	0
	0	0	4.999999999995e-12
 1	1e-11	5	4.99999999975118
	5	0	-1.23539270011658e-13
	0	0	1.23539270011659e-13
 2	3e-11	5	4.99999999926354
	5	0	-1.23589020608816e-13
	0	0	1.23589018838907e-13
 3	7e-11	5	4.99999999828825
	5	0	-1.23589519106472e-13
	0	0	1.23589472084066e-13
 4	1e-10	5	4.99999999755679
	5	0	-1.23588364642751e-13
	0	0	1.2358842694974e-13
 5	1.008335e-10	4.958325	4.99897197186473
	5	0	0.000246676825731154
	0	0	-0.000246676825731154
 6	1.025005e-10	4.874975	4.99692756337979
	5	0	0.000243883088671951
	0	0	-0.00024388308867195
 7	1.058345e-10	4.708275	4.99286695810132
	5	0	0.00024329209971507
	0	0	-0.000243292099715071
 8	1.125025e-10	4.374875	4.98476227716186
	5	0	0.000242891509950989
	0	0	-0.000242891509950989
 9	1.258385e-10	3.708075	4.96692994033265
	5	0	0.00029197161234712
	0	0	-0.00029197161234712
 10	1.3001500001e-10	3.4992499995	4.96026686358052
	5	0	0.00034617771197005
	0	0	-0.00034617771197005
 11	1.3836800003e-10	3.08159999850001	4.94687752545327
	5	0	0.000294997333561397
	0	0	-0.000294997333561397
 12	1.50972531842752e-10	2.4513734078624	4.92659824009551
	5	0	0.00034855802725299
	0	0	-0.000348558027252991
 13	1.76181595468256e-10	1.19092022658718	4.88560445262569
	5	0	0.000301903052308131
	0	0	-0.000301903052308129
 14	2e-10	0	4.84551008313635
	5	0	0.000371431198211656
	0	0	-0.000371431198211658
 15	2.008335e-10	0	4.8454935496877
	5	0	3.96722938388549e-06
	0	0	-3.96722938388419e-06
 16	2.025005e-10	0	4.84546052846734
	5	0	3.95626910955468e-06
	0	0	-3.95626910955999e-06
 17	2.058345e-10	0	4.84539600648229
	5	0	3.78481118742686e-06
	0	0	-3.78481118742122e-06
 18	2.125025e-10	0	4.84527279432181
	5	0	3.60643050051317e-06
	0	0	-3.6064305005174e-06
 19	2.258385e-10	0	4.84504758494854
	5	0	3.14849002129082e-06
	0	0	-3.1484900212848e-06
 20	2.52510499999999e-10	0	4.84466776265446
	5	0	2.54769546120979e-06
	0	0	-2.54769546121586e-06
 21	3.05854499999999e-10	0	4.84410845731645
	5	0	1.64624609484245e-06
	0	0	-1.64624609483562e-06
 22	4.12542499999997e-10	0	4.8434339109898
	5	0	8.82787133958439e-07
	0	0	-8.8278713396523e-07
 23	5.4169464225136e-10	0	4.84298160202191
	5	0	5.18059441097171e-07
	0	0	-5.18059441090284e-07
 24	7.06253062096772e-10	0	4.84259278719841
	5	0	4.27041609961336e-07
	0	0	-4.27041609968411e-07
 25	9.2094729582654e-10	0	4.84219539212825
	5	0	3.13341333892584e-07
	0	0	-3.13341333885585e-07
 26	1.26529745123379e-09	0	4.8417035956071
	5	0	2.57923905040433e-07
	0	0	-2.57923905047507e-07
 27	1.90866906403456e-09	0	4.84105602033554
	5	0	1.4467993053077e-07
	0	0	-1.44679930523717e-07
 28	3.02305206445641e-09	0	4.84034081384892
	5	0	1.12028764556195e-07
	0	0	-1.12028764563228e-07
 29	4.57255919395717e-09	0	4.83969213698527
	5	0	5.54152834516039e-08
	0	0	-5.54152834445735e-08
 30	6.17255919395717e-09	0	4.83923452583631
	5	0	5.89778248606473e-08
	0	0	-5.89778248676735e-08
 31	7.77255919395717e-09	0	4.83888568863198
	5	0	2.82217981026022e-08
	0	0	-2.82217980955694e-08
 32	9.37255919395717e-09	0	4.83860345575833
	5	0	4.23267428202476e-08
	0	0	-4.23267428272907e-08
 33	1.09725591939572e-08	0	4.83836712980146
	5	0	1.67450694255441e-08
	0	0	-1.67450694185035e-08
 34	1.25725591939572e-08	0	4.83816326473962
	5	0	3.42115195051489e-08
	0	0	-3.42115195121937e-08
 35	1.41725591939572e-08	0	4.8379843848231
	5	0	1.04987834769112e-08
	0	0	-1.04987834698749e-08
 36	1.57725591939572e-08	0	4.83782456508879
	5	0	2.94464742911433e-08
	0	0	-2.9446474298172e-08
 37	1.73725591939572e-08	0	4.83768038664072
	5	0	6.58846222195151e-09
	0	0	-6.58846221493047e-09
 38	1.89725591939572e-08	0	4.83754870869638
	5	0	2.6321348633297e-08
	0	0	-2.63213486403088e-08
 39	2.05725591939572e-08	0	4.83742770543814
	5	0	3.91979095106494e-09
	0	0	-3.91979094404899e-09
 40	2.21725591939572e-08	0	4.83731551473091
	5	0	2.41182111126256e-08
	0	0	-2.41182111196543e-08
 41	2.37725591939572e-08	0	4.837211050568
	5	0	1.98815508976277e-09
	0	0	-1.988155082729e-09
 42	2.53725591939572e-08	0	4.83711312414306
	5	0	2.24837768195163e-08
	0	0	-2.2483776826567e-08
 43	2.69725591939572e-08	0	4.83702103550928
	5	0	5.28707491086198e-10
	0	0	-5.2870748402279e-10
 44	2.85725591939572e-08	0	4.83693398478207
	5	0	2.1224300357828e-08
	0	0	-2.12243003648812e-08
 45	3.01725591939572e-08	0	4.83685149207237
	5	0	-6.10796717626793e-10
	0	0	6.10796724693589e-10
 46	3.17725591939572e-08	0	4.8367729974212
	5	0	2.02247858851437e-08
	0	0	-2.02247858921978e-08
 47	3.33725591939572e-08	0	4.83669815554551
	5	0	-1.52399043393545e-09
	0	0	1.52399044099038e-09
 48	3.49725591939572e-08	0	4.83662656192061
	5	0	1.94127233348713e-08
	0	0	-1.94127233419085e-08
 49	3.65725591939572e-08	0	4.83655795851878
	5	0	-2.27154606240617e-09
	0	0	2.27154606944587e-09
 50	3.81725591939572e-08	0	4.83649204540233
	5	0	1.87401521238109e-08
	0	0	-1.87401521308633e-08
 51	3.97725591939572e-08	0	4.83642862389915
	5	0	-2.89444924981263e-09
	0	0	2.8944492568557e-09
 52	4.13725591939572e-08	0	4.83636746662267
	5	0	1.81740955751549e-08
	0	0	-1.81740955821954e-08
 53	4.29725591939572e-08	0	4.83630841692841
	5	0	-3.4213446857942e-09
	0	0	3.42134469283305e-09
 54	4.45725591939572e-08	0	4.83625129905038
	5	0	1.76911416330423e-08
	0	0	-1.76911416400794e-08
 55	4.61725591939572e-08	0	4.83619598710571
	5	0	-3.87282791179884e-09
	0	0	3.87282791882752e-09
 56	4.77725591939572e-08	0	4.83614234286381
	5	0	1.72742160476069e-08
	0	0	-1.72742160546305e-08
 57	4.93725591939572e-08	0	4.83609026358085
	5	0	-4.26406754048423e-09
	0	0	4.26406754751799e-09
 58	5.09725591939572e-08	0	4.83603963884594
	5	0	1.69105791386694e-08
	0	0	-1.69105791456896e-08
 59	5.25725591939572e-08	0	4.83599038371593
	5	0	-4.60646866558229e-09
	0	0	4.60646867260336e-09
 60	5.41725591939572e-08	0	4.8359424087543
	5	0	1.6590537140924e-08
	0	0	-1.65905371479417e-08
 61	5.57725591939572e-08	0	4.83589564296766
	5	0	-4.9087623202906e-09
	0	0	4.90876232730404e-09
 62	5.73725591939572e-08	0	4.83585001298036
	5	0	1.63065874010311e-08
	0	0	-1.63065874080318e-08
 63	5.89725591939572e-08	0	4.8358054589
	5	0	-5.17773896721977e-09
	0	0	5.17773897422643e-09
 64	6.05725591939572e-08	0	4.83576191982559
	5	0	1.6052836001506e-08
	0	0	-1.60528360085101e-08
 65	6.21725591939572e-08	0	4.83571934481304
	5	0	-5.4187543460581e-09
	0	0	5.41875435306562e-09
 66	6.37725591939572e-08	0	4.83567768277858
	5	0	1.58245915656828e-08
	0	0	-1.58245915726945e-08
 67	6.53725591939572e-08	0	4.83563689007025
	5	0	-5.63608579733496e-09
	0	0	5.63608580434925e-09
 68	6.69725591939572e-08	0	4.83559692342448
	5	0	1.5618076004769e-08
	0	0	-1.56180760117959e-08
 69	6.85725591939572e-08	0	4.83555774518796
	5	0	-5.83318802941411e-09
	0	0	5.83318803644872e-09
 70	7.01725591939572e-08	0	4.83551931839695
	5	0	1.54302147042256e-08
	0	0	-1.54302147112559e-08
 71	7.17725591939572e-08	0	4.83548161037344
	5	0	-6.01287982790461e-09
	0	0	6.01287983493838e-09
 72	7.33725591939572e-08	0	4.83544458928184
	5	0	1.52584818025336e-08
	0	0	-1.52584818095631e-08
 73	7.49725591939572e-08	0	4.83540822660098
	5	0	-6.17748244027594e-09
	0	0	6.17748244728682e-09
 74	7.65725591939572e-08	0	4.83537249471004
	5	0	1.51007843944063e-08
	0	0	-1.51007844014121e-08
 75	7.81725591939572e-08	0	4.83533736858389
	5	0	-6.32892356698541e-09
	0	0	6.32892357398613e-09
 76	7.90862795969786e-08	0	4.83531757200485
	5	0	1.49856147325116e-08
	0	0	-1.49856147395114e-08
 77	8e-08	0	4.83529796099422
	5	0	-6.41015993331078e-09
	0	0	6.41015994030557e-09
Plotname: Measurement Results for transient2 Analysis tran
Flags: real
No. Variables:        4
No. Points:        1
Variables:	0	dummy	dummy
		1	delay_d0001	 plot=0 grid=0
		2	slew_d0001	 plot=0 grid=0
		3	temper	C plot=0 grid=0
Values:
 0	0	nan	nan
	25
Plotname: Transient Analysis `transient3': time = (0 s -> 80 ns)
Flags: real
No. Variables:        9
No. Points:       78
Variables:	0	time	s
		1	A	V plot=0 grid=0
		2	Y	V plot=0 grid=0
		3	VDD	V plot=0 grid=0
		4	GND	V plot=0 grid=0
		5	V_A:p	A plot=0 grid=0
		6	V_GND:p	A plot=0 grid=0
		7	V_VDD:p	A plot=0 grid=0
		8	V_Y:p	A plot=0 grid=0
Values:
 0	0	5	4.999999999995
	5	0	0
	0	0	4.999999999995e-12
 1	1e-11	5	4.99999999987156
	5	0	-6.25422777410542e-14
	0	0	6.25422777410544e-14
 2	3e-11	5	4.99999999962469
	5	0	-6.25683101153788e-14
	0	0	6.25683302751824e-14
 3	7e-11	5	4.99999999913095
	5	0	-6.25669955647455e-14
	0	0	6.25669688259729e-14
 4	1e-10	5	4.99999999876064
	5	0	-6.25689717486447e-14
	0	0	6.25690588519171e-14
 5	1.008335e-10	4.958325	4.99947958425378
	5	0	0.000249749008491984
	0	0	-0.000249749008491983
 6	1.025005e-10	4.874975	4.99844476659966
	5	0	0.00024686413285772
	0	0	-0.00024686413285772
 7	1.058345e-10	4.708275	4.99638963434637
	5	0	0.000246268971314259
	0	0	-0.00024626897131426
 8	1.125025e-10	4.374875	4.99228689191127
	5	0	0.000245961664779235
	0	0	-0.000245961664779234
 9	1.258385e-10	3.708075	4.98319818173687
	5	0	0.000299251892995722
	0	0	-0.000299251892995723
 10	1.3001500001e-10	3.4992499995	4.97981034178513
	5	0	0.000349681882484356
	0	0	-0.000349681882484354
 11	1.3836800003e-10	3.08159999850001	4.97300534315563
	5	0	0.000302059863886221
	0	0	-0.000302059863886223
 12	1.51153630222418e-10	2.44231848887908	4.96254959084993
	5	0	0.000352159098467682
	0	0	-0.00035215909846768
 13	1.76724890607256e-10	1.16375546963722	4.94137981027097
	5	0	0.00031014005906437
	0	0	-0.000310140059064373
 14	2e-10	0	4.92142246075522
	5	0	0.000375823607685069
	0	0	-0.000375823607685066
 15	2.008335e-10	0	4.92141334566887
	5	0	4.37436165710256e-06
	0	0	-4.37436165710132e-06
 16	2.025005e-10	0	4.92139515245006
	5	0	4.35662732495865e-06
	0	0	-4.35662732496418e-06
 17	2.058345e-10	0	4.92135958915438
	5	0	4.17684710020795e-06
	0	0	-4.17684710020188e-06
 18	2.125025e-10	0	4.92129162285632
	5	0	3.97746795905149e-06
	0	0	-3.97746795905475e-06
 19	2.258385e-10	0	4.92116721617294
	5	0	3.48543061969213e-06
	0	0	-3.48543061968894e-06
 20	2.52510499999999e-10	0	4.92095691584852
	5	0	2.82230772105379e-06
	0	0	-2.82230772105658e-06
 21	3.05854499999999e-10	0	4.92064620345279
	5	0	1.83743642251034e-06
	0	0	-1.83743642250732e-06
 22	4.12542499999997e-10	0	4.92026972664303
	5	0	9.85565207510555e-07
	0	0	-9.85565207513425e-07
 23	5.41025453433898e-10	0	4.92001783426096
	5	0	5.82834614876456e-07
	0	0	-5.82834614873448e-07
 24	7.04115195518774e-10	0	4.9198038218004
	5	0	4.66945472393652e-07
	0	0	-4.66945472396677e-07
 25	9.15683953827766e-10	0	4.91958943543544
	5	0	3.43698838355681e-07
	0	0	-3.43698838352695e-07
 26	1.25113874624672e-09	0	4.91933005186204
	5	0	2.74874999011312e-07
	0	0	-2.74874999014356e-07
 27	1.86263483024651e-09	0	4.91899857982469
	5	0	1.58769010684655e-07
	0	0	-1.58769010681587e-07
 28	2.90197959534063e-09	0	4.91863789648398
	5	0	1.18844787512987e-07
	0	0	-1.1884478751606e-07
 29	4.35406881315035e-09	0	4.9183162512359
	5	0	5.83494999832336e-08
	0	0	-5.83494999801492e-08
 30	5.95406881315035e-09	0	4.91806756877373
	5	0	6.5981894716787e-08
	0	0	-6.59818947198688e-08
 31	7.55406881315035e-09	0	4.91787966711548
	5	0	2.79590984618607e-08
	0	0	-2.79590984587758e-08
 32	9.15406881315035e-09	0	4.91772929837884
	5	0	4.72154342462651e-08
	0	0	-4.72154342493551e-08
 33	1.07540688131503e-08	0	4.91760386225819
	5	0	1.54927907488878e-08
	0	0	-1.54927907457978e-08
 34	1.23540688131503e-08	0	4.91749619480845
	5	0	3.83310990204254e-08
	0	0	-3.83310990235154e-08
 35	1.39540688131503e-08	0	4.91740177913163
	5	0	8.86690448968534e-09
	0	0	-8.86690448658355e-09
 36	1.55540688131503e-08	0	4.91731765188662
	5	0	3.31868832980855e-08
	0	0	-3.31868833011983e-08
 37	1.71540688131503e-08	0	4.91724170686516
	5	0	4.77579287193519e-09
	0	0	-4.77579286881981e-09
 38	1.87540688131503e-08	0	4.91717244555942
	5	0	2.9845025580648e-08
	0	0	-2.98450255837591e-08
 39	2.03540688131503e-08	0	4.91710872073272
	5	0	2.00755348879495e-09
	0	0	-2.00755348568294e-09
 40	2.19540688131503e-08	0	4.9170496734223
	5	0	2.75062675637587e-08
	0	0	-2.75062675668791e-08
 41	2.35540688131504e-08	0	4.91699461217175
	5	0	1.45236682788138e-11
	0	0	-1.4523665153249e-11
 42	2.51540688131504e-08	0	4.91694300049823
	5	0	2.57814791535941e-08
	0	0	-2.57814791567306e-08
 43	2.67540688131504e-08	0	4.91689439090539
	5	0	-1.4865165715357e-09
	0	0	1.48651657467311e-09
 44	2.83540688131504e-08	0	4.9168484266876
	5	0	2.44587917221764e-08
	0	0	-2.44587917253087e-08
 45	2.99540688131504e-08	0	4.91680480250566
	5	0	-2.65653440354611e-09
	0	0	2.65653440668012e-09
 46	3.15540688131504e-08	0	4.91676326960392
	5	0	2.34131517068269e-08
	0	0	-2.34131517099533e-08
 47	3.31540688131504e-08	0	4.91672361093215
	5	0	-3.59364930957729e-09
	0	0	3.5936493127096e-09
 48	3.47540688131504e-08	0	4.91668564637817
	5	0	2.25660928902376e-08
	0	0	-2.2566092893375e-08
 49	3.63540688131504e-08	0	4.91664921651557
	5	0	-4.36099492341923e-09
	0	0	4.36099492655407e-09
 50	3.79540688131504e-08	0	4.91661418691748
	5	0	2.18659607058924e-08
	0	0	-2.18659607090349e-08
 51	3.95540688131504e-08	0	4.91658043729297
	5	0	-5.00098164687034e-09
	0	0	5.00098165001878e-09
 52	4.11540688131504e-08	0	4.91654786477074
	5	0	2.12774096331792e-08
	0	0	-2.12774096363234e-08
 53	4.27540688131504e-08	0	4.91651637652024
	5	0	-5.54311744733941e-09
	0	0	5.54311745048276e-09
 54	4.43540688131504e-08	0	4.91648589214731
	5	0	2.07754709112588e-08
	0	0	-2.07754709143945e-08
 55	4.59540688131504e-08	0	4.91645633862253
	5	0	-6.00854146344644e-09
	0	0	6.00854146658554e-09
 56	4.75540688131504e-08	0	4.91642765198233
	5	0	2.03420286754438e-08
	0	0	-2.03420286785701e-08
 57	4.91540688131504e-08	0	4.91639977381054
	5	0	-6.41277560660688e-09
	0	0	6.41277560971972e-09
 58	5.07540688131504e-08	0	4.9163726524222
	5	0	1.99636370049953e-08
	0	0	-1.99636370081039e-08
 59	5.23540688131504e-08	0	4.9163462404035
	5	0	-6.76746037542288e-09
	0	0	6.7674603785281e-09
 60	5.39540688131504e-08	0	4.91632049542149
	5	0	1.96301187176343e-08
	0	0	-1.96301187207344e-08
 61	5.55540688131504e-08	0	4.91629537849193
	5	0	-7.08148655371317e-09
	0	0	7.08148655681924e-09
 62	5.71540688131504e-08	0	4.91627085452366
	5	0	1.93336381212427e-08
	0	0	-1.93336381243462e-08
 63	5.87540688131504e-08	0	4.91624689109104
	5	0	-7.36175432626657e-09
	0	0	7.36175432936502e-09
 64	6.03540688131504e-08	0	4.9162234587928
	5	0	1.90680709736437e-08
	0	0	-1.90680709767438e-08
 65	6.19540688131504e-08	0	4.91620053037651
	5	0	-7.6136952546167e-09
	0	0	7.61369525772025e-09
 66	6.35540688131504e-08	0	4.91617808096953
	5	0	1.88285663684457e-08
	0	0	-1.8828566371561e-08
 67	6.51540688131504e-08	0	4.91615608745032
	5	0	-7.84163909979225e-09
	0	0	7.84163910290511e-09
 68	6.67540688131504e-08	0	4.91613452859234
	5	0	1.86112357987598e-08
	0	0	-1.86112358018794e-08
 69	6.83540688131504e-08	0	4.91611338460952
	5	0	-8.04907663179705e-09
	0	0	8.04907663492346e-09
 70	6.99540688131504e-08	0	4.91609263724148
	5	0	1.84129284412981e-08
	0	0	-1.84129284444338e-08
 71	7.15540688131504e-08	0	4.91607226942264
	5	0	-8.23885118558988e-09
	0	0	8.23885118872983e-09
 72	7.31540688131504e-08	0	4.91605226532857
	5	0	1.82310660964419e-08
	0	0	-1.82310660995708e-08
 73	7.47540688131504e-08	0	4.91603261013311
	5	0	-8.41330045058311e-09
	0	0	8.41330045370358e-09
 74	7.63540688131504e-08	0	4.91601329002959
	5	0	1.80635201650991e-08
	0	0	-1.80635201682213e-08
 75	7.79540688131504e-08	0	4.91599429205103
	5	0	-8.57436289150417e-09
	0	0	8.57436289462295e-09
 76	7.89770344065752e-08	0	4.91598230919155
	5	0	1.79356061923346e-08
	0	0	-1.79356061954652e-08
 77	8e-08	0	4.91597044999982
	5	0	-8.67107599008886e-09
	0	0	8.67107599324999e-09
Plotname: Measurement Results for transient3 Analysis tran
Flags: real
No. Variables:        4
No. Points:        1
Variables:	0	dummy	dummy
		1	delay_d0001	 plot=0 grid=0
		2	slew_d0001	 plot=0 grid=0
		3	temper	C plot=0 grid=0
Values:
 0	0	nan	nan
	25
Plotname: Transient Analysis `transient4': time = (0 s -> 80 ns)
Flags: real
No. Variables:        9
No. Points:       78
Variables:	0	time	s
		1	A	V plot=0 grid=0
		2	Y	V plot=0 grid=0
		3	VDD	V plot=0 grid=0
		4	GND	V plot=0 grid=0
		5	V_A:p	A plot=0 grid=0
		6	V_GND:p	A plot=0 grid=0
		7	V_VDD:p	A plot=0 grid=0
		8	V_Y:p	A plot=0 grid=0
Values:
 0	0	5	4.999999999995
	5	0	0
	0	0	4.999999999995e-12
 1	1e-11	5	4.99999999995351
	5	0	-2.10227338687638e-14
	0	0	2.10227338687634e-14
 2	3e-11	5	4.99999999987053
	5	0	-2.10313631611516e-14
	0	0	2.1031474948468e-14
 3	7e-11	5	4.99999999970456
	5	0	-2.10314083299106e-14
	0	0	2.10312612658601e-14
 4	1e-10	5	4.99999999958009
	5	0	-2.10313844843653e-14
	0	0	2.10314950311657e-14
 5	1.008335e-10	4.958325	4.99982507571036
	5	0	0.000251839999412141
	0	0	-0.000251839999412139
 6	1.025005e-10	4.874975	4.99947727568805
	5	0	0.000248891876334937
	0	0	-0.000248891876334939
 7	1.058345e-10	4.708275	4.99878660078699
	5	0	0.000248294605129206
	0	0	-0.000248294605129204
 8	1.125025e-10	4.374875	4.99740757675749
	5	0	0.000248054765618997
	0	0	-0.000248054765618999
 9	1.258385e-10	3.708075	4.99433841241963
	5	0	0.000304284337380539
	0	0	-0.000304284337380538
 10	1.3001500001e-10	3.4992499995	4.99319633527194
	5	0	0.000352003249400426
	0	0	-0.000352003249400426
 11	1.3836800003e-10	3.08159999850001	4.99090280669459
	5	0	0.000306977774071761
	0	0	-0.00030697777407176
 12	1.5128683632072e-10	2.435658183964	4.98734189048696
	5	0	0.000354552303180745
	0	0	-0.000354552303180745
 13	1.7712450890216e-10	1.143774554892	4.9801231869325
	5	0	0.000315975903977219
	0	0	-0.000315975903977219
 14	2e-10	0	4.97350259042964
	5	0	0.000378629134716842
	0	0	-0.000378629134716842
 15	2.008335e-10	0	4.97349934546038
	5	0	4.67181639161532e-06
	0	0	-4.67181639161922e-06
 16	2.025005e-10	0	4.97349287082936
	5	0	4.649778011745e-06
	0	0	-4.64977801173719e-06
 17	2.058345e-10	0	4.97348021081135
	5	0	4.46360233199257e-06
	0	0	-4.46360233200254e-06
 18	2.125025e-10	0	4.97345600220537
	5	0	4.24974320169921e-06
	0	0	-4.24974320168946e-06
 19	2.258385e-10	0	4.97341164624007
	5	0	3.73272411051174e-06
	0	0	-3.73272411052253e-06
 20	2.52510499999999e-10	0	4.97333654741653
	5	0	3.02480855254138e-06
	0	0	-3.02480855253135e-06
 21	3.05854499999999e-10	0	4.97322535825457
	5	0	1.97769328691917e-06
	0	0	-1.97769328692905e-06
 22	4.12542499999997e-10	0	4.97309032384102
	5	0	1.05996353825035e-06
	0	0	-1.05996353824076e-06
 23	5.40584809281518e-10	0	4.97300026792898
	5	0	6.28016915950826e-07
	0	0	-6.28016915960394e-07
 24	7.0262553278573e-10	0	4.97292446447186
	5	0	4.94705085657044e-07
	0	0	-4.9470508564745e-07
 25	9.11929841686334e-10	0	4.97284954886873
	5	0	3.64309077803046e-07
	0	0	-3.64309077812604e-07
 26	1.24108192046312e-09	0	4.97276024094698
	5	0	2.86866328397369e-07
	0	0	-2.86866328387859e-07
 27	1.83197715272943e-09	0	4.97264814157857
	5	0	1.68430300825905e-07
	0	0	-1.68430300835412e-07
 28	2.82618705924587e-09	0	4.97252704698074
	5	0	1.23879346560955e-07
	0	0	-1.23879346551443e-07
 29	4.21904027684065e-09	0	4.97241834889744
	5	0	6.34063952300094e-08
	0	0	-6.34063952395038e-08
 30	5.81904027684065e-09	0	4.97233123362616
	5	0	6.72565669475324e-08
	0	0	-6.72565669380361e-08
 31	7.41904027684065e-09	0	4.97226590127271
	5	0	3.07320186286067e-08
	0	0	-3.07320186381128e-08
 32	9.01904027684065e-09	0	4.97221383345696
	5	0	4.73597605271006e-08
	0	0	-4.73597605175748e-08
 33	1.06190402768407e-08	0	4.97217050522853
	5	0	1.76226377232131e-08
	0	0	-1.76226377327321e-08
 34	1.22190402768407e-08	0	4.97213336013013
	5	0	3.80850655704019e-08
	0	0	-3.80850655608761e-08
 35	1.38190402768407e-08	0	4.97210080774702
	5	0	1.07335648707346e-08
	0	0	-1.07335648802594e-08
 36	1.54190402768407e-08	0	4.97207180412833
	5	0	3.27619189865998e-08
	0	0	-3.2761918977075e-08
 37	1.70190402768407e-08	0	4.97204561701428
	5	0	6.50880796258408e-09
	0	0	-6.50880797210218e-09
 38	1.86190402768407e-08	0	4.97202172258388
	5	0	2.93228935747706e-08
	0	0	-2.93228935652618e-08
 39	2.02190402768407e-08	0	4.97199972544825
	5	0	3.66286584956784e-09
	0	0	-3.66286585907492e-09
 40	2.18190402768407e-08	0	4.97197932699713
	5	0	2.69248668524495e-08
	0	0	-2.6924866842939e-08
 41	2.34190402768407e-08	0	4.97196029046582
	5	0	1.61998618149412e-09
	0	0	-1.61998619101222e-09
 42	2.50190402768407e-08	0	4.97194243018838
	5	0	2.51604860672095e-08
	0	0	-2.51604860576846e-08
 43	2.66190402768407e-08	0	4.97192559370499
	5	0	8.42951579335289e-11
	0	0	-8.42951674541792e-11
 44	2.82190402768407e-08	0	4.97190965806136
	5	0	2.38092264395527e-08
	0	0	-2.38092264300354e-08
 45	2.98190402768407e-08	0	4.97189451964407
	5	0	-1.11154430781401e-09
	0	0	1.11154429830692e-09
 46	3.14190402768407e-08	0	4.97188009302736
	5	0	2.27415256004111e-08
	0	0	-2.27415255909015e-08
 47	3.30190402768407e-08	0	4.97186630479205
	5	0	-2.06911637786942e-09
	0	0	2.06911636836742e-09
 48	3.46190402768407e-08	0	4.97185309330032
	5	0	2.18764102541341e-08
	0	0	-2.18764102446414e-08
 49	3.62190402768407e-08	0	4.97184040476142
	5	0	-2.85354559334267e-09
	0	0	2.85354558384913e-09
 50	3.78190402768407e-08	0	4.97182819331929
	5	0	2.11607651182641e-08
	0	0	-2.11607651087807e-08
 51	3.94190402768407e-08	0	4.97181641846798
	5	0	-3.5084318034301e-09
	0	0	3.5084317939518e-09
 52	4.10190402768407e-08	0	4.97180504521672
	5	0	2.05583650820786e-08
	0	0	-2.05583650725969e-08
 53	4.26190402768407e-08	0	4.9717940423529
	5	0	-4.06401295440265e-09
	0	0	4.06401294491251e-09
 54	4.42190402768407e-08	0	4.97178338259925
	5	0	2.00436998554481e-08
	0	0	-2.00436998459613e-08
 55	4.58190402768407e-08	0	4.9717730414263
	5	0	-4.54188398985472e-09
	0	0	4.5418839803671e-09
 56	4.74190402768407e-08	0	4.97176299717609
	5	0	1.95983157635799e-08
	0	0	-1.95983157541032e-08
 57	4.90190402768407e-08	0	4.97175323023927
	5	0	-4.95785404410303e-09
	0	0	4.95785403462643e-09
 58	5.06190402768407e-08	0	4.9717437231429
	5	0	1.92085550916923e-08
	0	0	-1.92085550822157e-08
 59	5.22190402768407e-08	0	4.9717344599738