HEADER
"PSFversion" "1.00"
"design" "(\"ExperimentalCells\" \"TestYSD\" \"schematic\" \"\")"
"simulator" "spectre"
"temperature" "27"
"host" ""
"date" "Oct 30 22:37:59 2014"
"title" ""
"analysisList" "()"
END
