HEADER
"PSFversion" "1.00"
"Time Stamp" "Oct 30 22:37:59 2014"
TYPE
"variable" STRUCT(
"value" FLOAT DOUBLE
) PROP( "key" "element" )
VALUE
"temp" "variable" ( 27 ) PROP( )
END
